+ 0.1 1 0 tcp 40 ------- 1 1.0 3.0 0 0
- 0.1 1 0 tcp 40 ------- 1 1.0 3.0 0 0
r 0.11032 1 0 tcp 40 ------- 1 1.0 3.0 0 0
+ 0.11032 0 3 tcp 40 ------- 1 1.0 3.0 0 0
- 0.11032 0 3 tcp 40 ------- 1 1.0 3.0 0 0
r 0.12064 0 3 tcp 40 ------- 1 1.0 3.0 0 0
+ 0.12064 3 0 ack 40 ------- 1 3.0 1.0 0 1
- 0.12064 3 0 ack 40 ------- 1 3.0 1.0 0 1
r 0.13096 3 0 ack 40 ------- 1 3.0 1.0 0 1
+ 0.13096 0 1 ack 40 ------- 1 3.0 1.0 0 1
- 0.13096 0 1 ack 40 ------- 1 3.0 1.0 0 1
r 0.14128 0 1 ack 40 ------- 1 3.0 1.0 0 1
+ 0.14128 1 0 tcp 1040 ------- 1 1.0 3.0 1 2
- 0.14128 1 0 tcp 1040 ------- 1 1.0 3.0 1 2
+ 0.14128 1 0 tcp 1040 ------- 1 1.0 3.0 2 3
- 0.1496 1 0 tcp 1040 ------- 1 1.0 3.0 2 3
r 0.1596 1 0 tcp 1040 ------- 1 1.0 3.0 1 2
+ 0.1596 0 3 tcp 1040 ------- 1 1.0 3.0 1 2
- 0.1596 0 3 tcp 1040 ------- 1 1.0 3.0 1 2
r 0.16792 1 0 tcp 1040 ------- 1 1.0 3.0 2 3
+ 0.16792 0 3 tcp 1040 ------- 1 1.0 3.0 2 3
- 0.16792 0 3 tcp 1040 ------- 1 1.0 3.0 2 3
r 0.17792 0 3 tcp 1040 ------- 1 1.0 3.0 1 2
+ 0.17792 3 0 ack 40 ------- 1 3.0 1.0 1 4
- 0.17792 3 0 ack 40 ------- 1 3.0 1.0 1 4
r 0.18624 0 3 tcp 1040 ------- 1 1.0 3.0 2 3
+ 0.18624 3 0 ack 40 ------- 1 3.0 1.0 2 5
- 0.18624 3 0 ack 40 ------- 1 3.0 1.0 2 5
r 0.18824 3 0 ack 40 ------- 1 3.0 1.0 1 4
+ 0.18824 0 1 ack 40 ------- 1 3.0 1.0 1 4
- 0.18824 0 1 ack 40 ------- 1 3.0 1.0 1 4
r 0.19656 3 0 ack 40 ------- 1 3.0 1.0 2 5
+ 0.19656 0 1 ack 40 ------- 1 3.0 1.0 2 5
- 0.19656 0 1 ack 40 ------- 1 3.0 1.0 2 5
r 0.19856 0 1 ack 40 ------- 1 3.0 1.0 1 4
+ 0.19856 1 0 tcp 1040 ------- 1 1.0 3.0 3 6
- 0.19856 1 0 tcp 1040 ------- 1 1.0 3.0 3 6
+ 0.19856 1 0 tcp 1040 ------- 1 1.0 3.0 4 7
+ 0.2 2 0 cbr 500 ------- 0 2.0 3.1 0 8
- 0.2 2 0 cbr 500 ------- 0 2.0 3.1 0 8
+ 0.205 2 0 cbr 500 ------- 0 2.0 3.1 1 9
- 0.205 2 0 cbr 500 ------- 0 2.0 3.1 1 9
r 0.20688 0 1 ack 40 ------- 1 3.0 1.0 2 5
+ 0.20688 1 0 tcp 1040 ------- 1 1.0 3.0 5 10
+ 0.20688 1 0 tcp 1040 ------- 1 1.0 3.0 6 11
- 0.20688 1 0 tcp 1040 ------- 1 1.0 3.0 4 7
+ 0.21 2 0 cbr 500 ------- 0 2.0 3.1 2 12
- 0.21 2 0 cbr 500 ------- 0 2.0 3.1 2 12
r 0.214 2 0 cbr 500 ------- 0 2.0 3.1 0 8
+ 0.214 0 3 cbr 500 ------- 0 2.0 3.1 0 8
- 0.214 0 3 cbr 500 ------- 0 2.0 3.1 0 8
+ 0.215 2 0 cbr 500 ------- 0 2.0 3.1 3 13
- 0.215 2 0 cbr 500 ------- 0 2.0 3.1 3 13
- 0.2152 1 0 tcp 1040 ------- 1 1.0 3.0 5 10
r 0.21688 1 0 tcp 1040 ------- 1 1.0 3.0 3 6
+ 0.21688 0 3 tcp 1040 ------- 1 1.0 3.0 3 6
- 0.218 0 3 tcp 1040 ------- 1 1.0 3.0 3 6
r 0.219 2 0 cbr 500 ------- 0 2.0 3.1 1 9
+ 0.219 0 3 cbr 500 ------- 0 2.0 3.1 1 9
+ 0.22 2 0 cbr 500 ------- 0 2.0 3.1 4 14
- 0.22 2 0 cbr 500 ------- 0 2.0 3.1 4 14
- 0.22352 1 0 tcp 1040 ------- 1 1.0 3.0 6 11
r 0.224 2 0 cbr 500 ------- 0 2.0 3.1 2 12
+ 0.224 0 3 cbr 500 ------- 0 2.0 3.1 2 12
+ 0.225 2 0 cbr 500 ------- 0 2.0 3.1 5 15
- 0.225 2 0 cbr 500 ------- 0 2.0 3.1 5 15
r 0.2252 1 0 tcp 1040 ------- 1 1.0 3.0 4 7
+ 0.2252 0 3 tcp 1040 ------- 1 1.0 3.0 4 7
- 0.22632 0 3 cbr 500 ------- 0 2.0 3.1 1 9
r 0.228 0 3 cbr 500 ------- 0 2.0 3.1 0 8
r 0.229 2 0 cbr 500 ------- 0 2.0 3.1 3 13
+ 0.229 0 3 cbr 500 ------- 0 2.0 3.1 3 13
+ 0.23 2 0 cbr 500 ------- 0 2.0 3.1 6 16
- 0.23 2 0 cbr 500 ------- 0 2.0 3.1 6 16
- 0.23032 0 3 cbr 500 ------- 0 2.0 3.1 2 12
r 0.23352 1 0 tcp 1040 ------- 1 1.0 3.0 5 10
+ 0.23352 0 3 tcp 1040 ------- 1 1.0 3.0 5 10
r 0.234 2 0 cbr 500 ------- 0 2.0 3.1 4 14
+ 0.234 0 3 cbr 500 ------- 0 2.0 3.1 4 14
- 0.23432 0 3 tcp 1040 ------- 1 1.0 3.0 4 7
+ 0.235 2 0 cbr 500 ------- 0 2.0 3.1 7 17
- 0.235 2 0 cbr 500 ------- 0 2.0 3.1 7 17
r 0.23632 0 3 tcp 1040 ------- 1 1.0 3.0 3 6
+ 0.23632 3 0 ack 40 ------- 1 3.0 1.0 3 18
- 0.23632 3 0 ack 40 ------- 1 3.0 1.0 3 18
r 0.239 2 0 cbr 500 ------- 0 2.0 3.1 5 15
+ 0.239 0 3 cbr 500 ------- 0 2.0 3.1 5 15
+ 0.24 2 0 cbr 500 ------- 0 2.0 3.1 8 19
- 0.24 2 0 cbr 500 ------- 0 2.0 3.1 8 19
r 0.24032 0 3 cbr 500 ------- 0 2.0 3.1 1 9
r 0.24184 1 0 tcp 1040 ------- 1 1.0 3.0 6 11
+ 0.24184 0 3 tcp 1040 ------- 1 1.0 3.0 6 11
- 0.24264 0 3 cbr 500 ------- 0 2.0 3.1 3 13
r 0.244 2 0 cbr 500 ------- 0 2.0 3.1 6 16
+ 0.244 0 3 cbr 500 ------- 0 2.0 3.1 6 16
r 0.24432 0 3 cbr 500 ------- 0 2.0 3.1 2 12
+ 0.245 2 0 cbr 500 ------- 0 2.0 3.1 9 20
- 0.245 2 0 cbr 500 ------- 0 2.0 3.1 9 20
r 0.24664 3 0 ack 40 ------- 1 3.0 1.0 3 18
+ 0.24664 0 1 ack 40 ------- 1 3.0 1.0 3 18
- 0.24664 0 1 ack 40 ------- 1 3.0 1.0 3 18
- 0.24664 0 3 tcp 1040 ------- 1 1.0 3.0 5 10
r 0.249 2 0 cbr 500 ------- 0 2.0 3.1 7 17
+ 0.249 0 3 cbr 500 ------- 0 2.0 3.1 7 17
+ 0.25 2 0 cbr 500 ------- 0 2.0 3.1 10 21
- 0.25 2 0 cbr 500 ------- 0 2.0 3.1 10 21
r 0.25264 0 3 tcp 1040 ------- 1 1.0 3.0 4 7
+ 0.25264 3 0 ack 40 ------- 1 3.0 1.0 4 22
- 0.25264 3 0 ack 40 ------- 1 3.0 1.0 4 22
r 0.254 2 0 cbr 500 ------- 0 2.0 3.1 8 19
+ 0.254 0 3 cbr 500 ------- 0 2.0 3.1 8 19
- 0.25496 0 3 cbr 500 ------- 0 2.0 3.1 4 14
+ 0.255 2 0 cbr 500 ------- 0 2.0 3.1 11 23
- 0.255 2 0 cbr 500 ------- 0 2.0 3.1 11 23
r 0.25664 0 3 cbr 500 ------- 0 2.0 3.1 3 13
r 0.25696 0 1 ack 40 ------- 1 3.0 1.0 3 18
+ 0.25696 1 0 tcp 1040 ------- 1 1.0 3.0 7 24
- 0.25696 1 0 tcp 1040 ------- 1 1.0 3.0 7 24
+ 0.25696 1 0 tcp 1040 ------- 1 1.0 3.0 8 25
- 0.25896 0 3 cbr 500 ------- 0 2.0 3.1 5 15
r 0.259 2 0 cbr 500 ------- 0 2.0 3.1 9 20
+ 0.259 0 3 cbr 500 ------- 0 2.0 3.1 9 20
+ 0.26 2 0 cbr 500 ------- 0 2.0 3.1 12 26
- 0.26 2 0 cbr 500 ------- 0 2.0 3.1 12 26
r 0.26296 3 0 ack 40 ------- 1 3.0 1.0 4 22
+ 0.26296 0 1 ack 40 ------- 1 3.0 1.0 4 22
- 0.26296 0 1 ack 40 ------- 1 3.0 1.0 4 22
- 0.26296 0 3 tcp 1040 ------- 1 1.0 3.0 6 11
r 0.264 2 0 cbr 500 ------- 0 2.0 3.1 10 21
+ 0.264 0 3 cbr 500 ------- 0 2.0 3.1 10 21
r 0.26496 0 3 tcp 1040 ------- 1 1.0 3.0 5 10
+ 0.26496 3 0 ack 40 ------- 1 3.0 1.0 5 27
- 0.26496 3 0 ack 40 ------- 1 3.0 1.0 5 27
+ 0.265 2 0 cbr 500 ------- 0 2.0 3.1 13 28
- 0.265 2 0 cbr 500 ------- 0 2.0 3.1 13 28
- 0.26528 1 0 tcp 1040 ------- 1 1.0 3.0 8 25
r 0.26896 0 3 cbr 500 ------- 0 2.0 3.1 4 14
r 0.269 2 0 cbr 500 ------- 0 2.0 3.1 11 23
+ 0.269 0 3 cbr 500 ------- 0 2.0 3.1 11 23
+ 0.27 2 0 cbr 500 ------- 0 2.0 3.1 14 29
- 0.27 2 0 cbr 500 ------- 0 2.0 3.1 14 29
- 0.27128 0 3 cbr 500 ------- 0 2.0 3.1 6 16
r 0.27296 0 3 cbr 500 ------- 0 2.0 3.1 5 15
r 0.27328 0 1 ack 40 ------- 1 3.0 1.0 4 22
+ 0.27328 1 0 tcp 1040 ------- 1 1.0 3.0 9 30
+ 0.27328 1 0 tcp 1040 ------- 1 1.0 3.0 10 31
- 0.2736 1 0 tcp 1040 ------- 1 1.0 3.0 9 30
r 0.274 2 0 cbr 500 ------- 0 2.0 3.1 12 26
+ 0.274 0 3 cbr 500 ------- 0 2.0 3.1 12 26
+ 0.275 2 0 cbr 500 ------- 0 2.0 3.1 15 32
- 0.275 2 0 cbr 500 ------- 0 2.0 3.1 15 32
r 0.27528 1 0 tcp 1040 ------- 1 1.0 3.0 7 24
+ 0.27528 0 3 tcp 1040 ------- 1 1.0 3.0 7 24
r 0.27528 3 0 ack 40 ------- 1 3.0 1.0 5 27
+ 0.27528 0 1 ack 40 ------- 1 3.0 1.0 5 27
- 0.27528 0 1 ack 40 ------- 1 3.0 1.0 5 27
- 0.27528 0 3 cbr 500 ------- 0 2.0 3.1 7 17
r 0.279 2 0 cbr 500 ------- 0 2.0 3.1 13 28
+ 0.279 0 3 cbr 500 ------- 0 2.0 3.1 13 28
- 0.27928 0 3 cbr 500 ------- 0 2.0 3.1 8 19
+ 0.28 2 0 cbr 500 ------- 0 2.0 3.1 16 33
- 0.28 2 0 cbr 500 ------- 0 2.0 3.1 16 33
r 0.28128 0 3 tcp 1040 ------- 1 1.0 3.0 6 11
+ 0.28128 3 0 ack 40 ------- 1 3.0 1.0 6 34
- 0.28128 3 0 ack 40 ------- 1 3.0 1.0 6 34
- 0.28192 1 0 tcp 1040 ------- 1 1.0 3.0 10 31
- 0.28328 0 3 cbr 500 ------- 0 2.0 3.1 9 20
r 0.2836 1 0 tcp 1040 ------- 1 1.0 3.0 8 25
+ 0.2836 0 3 tcp 1040 ------- 1 1.0 3.0 8 25
r 0.284 2 0 cbr 500 ------- 0 2.0 3.1 14 29
+ 0.284 0 3 cbr 500 ------- 0 2.0 3.1 14 29
+ 0.285 2 0 cbr 500 ------- 0 2.0 3.1 17 35
- 0.285 2 0 cbr 500 ------- 0 2.0 3.1 17 35
r 0.28528 0 3 cbr 500 ------- 0 2.0 3.1 6 16
r 0.2856 0 1 ack 40 ------- 1 3.0 1.0 5 27
+ 0.2856 1 0 tcp 1040 ------- 1 1.0 3.0 11 36
+ 0.2856 1 0 tcp 1040 ------- 1 1.0 3.0 12 37
- 0.28728 0 3 cbr 500 ------- 0 2.0 3.1 10 21
r 0.289 2 0 cbr 500 ------- 0 2.0 3.1 15 32
+ 0.289 0 3 cbr 500 ------- 0 2.0 3.1 15 32
r 0.28928 0 3 cbr 500 ------- 0 2.0 3.1 7 17
+ 0.29 2 0 cbr 500 ------- 0 2.0 3.1 18 38
- 0.29 2 0 cbr 500 ------- 0 2.0 3.1 18 38
- 0.29024 1 0 tcp 1040 ------- 1 1.0 3.0 11 36
- 0.29128 0 3 cbr 500 ------- 0 2.0 3.1 11 23
r 0.2916 3 0 ack 40 ------- 1 3.0 1.0 6 34
+ 0.2916 0 1 ack 40 ------- 1 3.0 1.0 6 34
- 0.2916 0 1 ack 40 ------- 1 3.0 1.0 6 34
r 0.29192 1 0 tcp 1040 ------- 1 1.0 3.0 9 30
+ 0.29192 0 3 tcp 1040 ------- 1 1.0 3.0 9 30
r 0.29328 0 3 cbr 500 ------- 0 2.0 3.1 8 19
r 0.294 2 0 cbr 500 ------- 0 2.0 3.1 16 33
+ 0.294 0 3 cbr 500 ------- 0 2.0 3.1 16 33
+ 0.295 2 0 cbr 500 ------- 0 2.0 3.1 19 39
- 0.295 2 0 cbr 500 ------- 0 2.0 3.1 19 39
- 0.29528 0 3 cbr 500 ------- 0 2.0 3.1 12 26
r 0.29728 0 3 cbr 500 ------- 0 2.0 3.1 9 20
- 0.29856 1 0 tcp 1040 ------- 1 1.0 3.0 12 37
r 0.299 2 0 cbr 500 ------- 0 2.0 3.1 17 35
+ 0.299 0 3 cbr 500 ------- 0 2.0 3.1 17 35
- 0.29928 0 3 tcp 1040 ------- 1 1.0 3.0 7 24
+ 0.3 2 0 cbr 500 ------- 0 2.0 3.1 20 40
- 0.3 2 0 cbr 500 ------- 0 2.0 3.1 20 40
r 0.30024 1 0 tcp 1040 ------- 1 1.0 3.0 10 31
+ 0.30024 0 3 tcp 1040 ------- 1 1.0 3.0 10 31
r 0.30128 0 3 cbr 500 ------- 0 2.0 3.1 10 21
r 0.30192 0 1 ack 40 ------- 1 3.0 1.0 6 34
+ 0.30192 1 0 tcp 1040 ------- 1 1.0 3.0 13 41
+ 0.30192 1 0 tcp 1040 ------- 1 1.0 3.0 14 42
r 0.304 2 0 cbr 500 ------- 0 2.0 3.1 18 38
+ 0.304 0 3 cbr 500 ------- 0 2.0 3.1 18 38
+ 0.305 2 0 cbr 500 ------- 0 2.0 3.1 21 43
- 0.305 2 0 cbr 500 ------- 0 2.0 3.1 21 43
r 0.30528 0 3 cbr 500 ------- 0 2.0 3.1 11 23
- 0.30688 1 0 tcp 1040 ------- 1 1.0 3.0 13 41
- 0.3076 0 3 cbr 500 ------- 0 2.0 3.1 13 28
r 0.30856 1 0 tcp 1040 ------- 1 1.0 3.0 11 36
+ 0.30856 0 3 tcp 1040 ------- 1 1.0 3.0 11 36
r 0.309 2 0 cbr 500 ------- 0 2.0 3.1 19 39
+ 0.309 0 3 cbr 500 ------- 0 2.0 3.1 19 39
r 0.30928 0 3 cbr 500 ------- 0 2.0 3.1 12 26
+ 0.31 2 0 cbr 500 ------- 0 2.0 3.1 22 44
- 0.31 2 0 cbr 500 ------- 0 2.0 3.1 22 44
- 0.3116 0 3 tcp 1040 ------- 1 1.0 3.0 8 25
r 0.314 2 0 cbr 500 ------- 0 2.0 3.1 20 40
+ 0.314 0 3 cbr 500 ------- 0 2.0 3.1 20 40
+ 0.315 2 0 cbr 500 ------- 0 2.0 3.1 23 45
- 0.315 2 0 cbr 500 ------- 0 2.0 3.1 23 45
- 0.3152 1 0 tcp 1040 ------- 1 1.0 3.0 14 42
r 0.31688 1 0 tcp 1040 ------- 1 1.0 3.0 12 37
+ 0.31688 0 3 tcp 1040 ------- 1 1.0 3.0 12 37
r 0.3176 0 3 tcp 1040 ------- 1 1.0 3.0 7 24
+ 0.3176 3 0 ack 40 ------- 1 3.0 1.0 7 46
- 0.3176 3 0 ack 40 ------- 1 3.0 1.0 7 46
r 0.319 2 0 cbr 500 ------- 0 2.0 3.1 21 43
+ 0.319 0 3 cbr 500 ------- 0 2.0 3.1 21 43
- 0.31992 0 3 cbr 500 ------- 0 2.0 3.1 14 29
+ 0.32 2 0 cbr 500 ------- 0 2.0 3.1 24 47
- 0.32 2 0 cbr 500 ------- 0 2.0 3.1 24 47
r 0.3216 0 3 cbr 500 ------- 0 2.0 3.1 13 28
- 0.32392 0 3 cbr 500 ------- 0 2.0 3.1 15 32
r 0.324 2 0 cbr 500 ------- 0 2.0 3.1 22 44
+ 0.324 0 3 cbr 500 ------- 0 2.0 3.1 22 44
+ 0.325 2 0 cbr 500 ------- 0 2.0 3.1 25 48
- 0.325 2 0 cbr 500 ------- 0 2.0 3.1 25 48
r 0.3252 1 0 tcp 1040 ------- 1 1.0 3.0 13 41
+ 0.3252 0 3 tcp 1040 ------- 1 1.0 3.0 13 41
r 0.32792 3 0 ack 40 ------- 1 3.0 1.0 7 46
+ 0.32792 0 1 ack 40 ------- 1 3.0 1.0 7 46
- 0.32792 0 1 ack 40 ------- 1 3.0 1.0 7 46
- 0.32792 0 3 tcp 1040 ------- 1 1.0 3.0 9 30
r 0.329 2 0 cbr 500 ------- 0 2.0 3.1 23 45
+ 0.329 0 3 cbr 500 ------- 0 2.0 3.1 23 45
r 0.32992 0 3 tcp 1040 ------- 1 1.0 3.0 8 25
+ 0.32992 3 0 ack 40 ------- 1 3.0 1.0 8 49
- 0.32992 3 0 ack 40 ------- 1 3.0 1.0 8 49
+ 0.33 2 0 cbr 500 ------- 0 2.0 3.1 26 50
- 0.33 2 0 cbr 500 ------- 0 2.0 3.1 26 50
r 0.33352 1 0 tcp 1040 ------- 1 1.0 3.0 14 42
+ 0.33352 0 3 tcp 1040 ------- 1 1.0 3.0 14 42
r 0.33392 0 3 cbr 500 ------- 0 2.0 3.1 14 29
r 0.334 2 0 cbr 500 ------- 0 2.0 3.1 24 47
+ 0.334 0 3 cbr 500 ------- 0 2.0 3.1 24 47
+ 0.335 2 0 cbr 500 ------- 0 2.0 3.1 27 51
- 0.335 2 0 cbr 500 ------- 0 2.0 3.1 27 51
- 0.33624 0 3 cbr 500 ------- 0 2.0 3.1 16 33
r 0.33792 0 3 cbr 500 ------- 0 2.0 3.1 15 32
r 0.33824 0 1 ack 40 ------- 1 3.0 1.0 7 46
+ 0.33824 1 0 tcp 1040 ------- 1 1.0 3.0 15 52
- 0.33824 1 0 tcp 1040 ------- 1 1.0 3.0 15 52
+ 0.33824 1 0 tcp 1040 ------- 1 1.0 3.0 16 53
r 0.339 2 0 cbr 500 ------- 0 2.0 3.1 25 48
+ 0.339 0 3 cbr 500 ------- 0 2.0 3.1 25 48
+ 0.34 2 0 cbr 500 ------- 0 2.0 3.1 28 54
- 0.34 2 0 cbr 500 ------- 0 2.0 3.1 28 54
r 0.34024 3 0 ack 40 ------- 1 3.0 1.0 8 49
+ 0.34024 0 1 ack 40 ------- 1 3.0 1.0 8 49
- 0.34024 0 1 ack 40 ------- 1 3.0 1.0 8 49
- 0.34024 0 3 cbr 500 ------- 0 2.0 3.1 17 35
r 0.344 2 0 cbr 500 ------- 0 2.0 3.1 26 50
+ 0.344 0 3 cbr 500 ------- 0 2.0 3.1 26 50
- 0.34424 0 3 tcp 1040 ------- 1 1.0 3.0 10 31
+ 0.345 2 0 cbr 500 ------- 0 2.0 3.1 29 55
- 0.345 2 0 cbr 500 ------- 0 2.0 3.1 29 55
r 0.34624 0 3 tcp 1040 ------- 1 1.0 3.0 9 30
+ 0.34624 3 0 ack 40 ------- 1 3.0 1.0 9 56
- 0.34624 3 0 ack 40 ------- 1 3.0 1.0 9 56
- 0.34656 1 0 tcp 1040 ------- 1 1.0 3.0 16 53
r 0.349 2 0 cbr 500 ------- 0 2.0 3.1 27 51
+ 0.349 0 3 cbr 500 ------- 0 2.0 3.1 27 51
+ 0.35 2 0 cbr 500 ------- 0 2.0 3.1 30 57
- 0.35 2 0 cbr 500 ------- 0 2.0 3.1 30 57
r 0.35024 0 3 cbr 500 ------- 0 2.0 3.1 16 33
r 0.35056 0 1 ack 40 ------- 1 3.0 1.0 8 49
+ 0.35056 1 0 tcp 1040 ------- 1 1.0 3.0 17 58
+ 0.35056 1 0 tcp 1040 ------- 1 1.0 3.0 18 59
- 0.35256 0 3 cbr 500 ------- 0 2.0 3.1 18 38
r 0.354 2 0 cbr 500 ------- 0 2.0 3.1 28 54
+ 0.354 0 3 cbr 500 ------- 0 2.0 3.1 28 54
r 0.35424 0 3 cbr 500 ------- 0 2.0 3.1 17 35
- 0.35488 1 0 tcp 1040 ------- 1 1.0 3.0 17 58
+ 0.355 2 0 cbr 500 ------- 0 2.0 3.1 31 60
- 0.355 2 0 cbr 500 ------- 0 2.0 3.1 31 60
r 0.35656 1 0 tcp 1040 ------- 1 1.0 3.0 15 52
+ 0.35656 0 3 tcp 1040 ------- 1 1.0 3.0 15 52
r 0.35656 3 0 ack 40 ------- 1 3.0 1.0 9 56
+ 0.35656 0 1 ack 40 ------- 1 3.0 1.0 9 56
- 0.35656 0 1 ack 40 ------- 1 3.0 1.0 9 56
- 0.35656 0 3 tcp 1040 ------- 1 1.0 3.0 11 36
r 0.359 2 0 cbr 500 ------- 0 2.0 3.1 29 55
+ 0.359 0 3 cbr 500 ------- 0 2.0 3.1 29 55
+ 0.36 2 0 cbr 500 ------- 0 2.0 3.1 32 61
- 0.36 2 0 cbr 500 ------- 0 2.0 3.1 32 61
r 0.36256 0 3 tcp 1040 ------- 1 1.0 3.0 10 31
+ 0.36256 3 0 ack 40 ------- 1 3.0 1.0 10 62
- 0.36256 3 0 ack 40 ------- 1 3.0 1.0 10 62
- 0.3632 1 0 tcp 1040 ------- 1 1.0 3.0 18 59
r 0.364 2 0 cbr 500 ------- 0 2.0 3.1 30 57
+ 0.364 0 3 cbr 500 ------- 0 2.0 3.1 30 57
r 0.36488 1 0 tcp 1040 ------- 1 1.0 3.0 16 53
+ 0.36488 0 3 tcp 1040 ------- 1 1.0 3.0 16 53
- 0.36488 0 3 cbr 500 ------- 0 2.0 3.1 19 39
+ 0.365 2 0 cbr 500 ------- 0 2.0 3.1 33 63
- 0.365 2 0 cbr 500 ------- 0 2.0 3.1 33 63
r 0.36656 0 3 cbr 500 ------- 0 2.0 3.1 18 38
r 0.36688 0 1 ack 40 ------- 1 3.0 1.0 9 56
+ 0.36688 1 0 tcp 1040 ------- 1 1.0 3.0 19 64
+ 0.36688 1 0 tcp 1040 ------- 1 1.0 3.0 20 65
- 0.36888 0 3 cbr 500 ------- 0 2.0 3.1 20 40
r 0.369 2 0 cbr 500 ------- 0 2.0 3.1 31 60
+ 0.369 0 3 cbr 500 ------- 0 2.0 3.1 31 60
+ 0.37 2 0 cbr 500 ------- 0 2.0 3.1 34 66
- 0.37 2 0 cbr 500 ------- 0 2.0 3.1 34 66
- 0.37152 1 0 tcp 1040 ------- 1 1.0 3.0 19 64
r 0.37288 3 0 ack 40 ------- 1 3.0 1.0 10 62
+ 0.37288 0 1 ack 40 ------- 1 3.0 1.0 10 62
- 0.37288 0 1 ack 40 ------- 1 3.0 1.0 10 62
- 0.37288 0 3 tcp 1040 ------- 1 1.0 3.0 12 37
r 0.3732 1 0 tcp 1040 ------- 1 1.0 3.0 17 58
+ 0.3732 0 3 tcp 1040 ------- 1 1.0 3.0 17 58
r 0.374 2 0 cbr 500 ------- 0 2.0 3.1 32 61
+ 0.374 0 3 cbr 500 ------- 0 2.0 3.1 32 61
r 0.37488 0 3 tcp 1040 ------- 1 1.0 3.0 11 36
+ 0.37488 3 0 ack 40 ------- 1 3.0 1.0 11 67
- 0.37488 3 0 ack 40 ------- 1 3.0 1.0 11 67
+ 0.375 2 0 cbr 500 ------- 0 2.0 3.1 35 68
- 0.375 2 0 cbr 500 ------- 0 2.0 3.1 35 68
r 0.37888 0 3 cbr 500 ------- 0 2.0 3.1 19 39
r 0.379 2 0 cbr 500 ------- 0 2.0 3.1 33 63
+ 0.379 0 3 cbr 500 ------- 0 2.0 3.1 33 63
- 0.37984 1 0 tcp 1040 ------- 1 1.0 3.0 20 65
+ 0.38 2 0 cbr 500 ------- 0 2.0 3.1 36 69
- 0.38 2 0 cbr 500 ------- 0 2.0 3.1 36 69
- 0.3812 0 3 cbr 500 ------- 0 2.0 3.1 21 43
r 0.38152 1 0 tcp 1040 ------- 1 1.0 3.0 18 59
+ 0.38152 0 3 tcp 1040 ------- 1 1.0 3.0 18 59
r 0.38288 0 3 cbr 500 ------- 0 2.0 3.1 20 40
r 0.3832 0 1 ack 40 ------- 1 3.0 1.0 10 62
+ 0.3832 1 0 tcp 1040 ------- 1 1.0 3.0 21 70
+ 0.3832 1 0 tcp 1040 ------- 1 1.0 3.0 22 71
r 0.384 2 0 cbr 500 ------- 0 2.0 3.1 34 66
+ 0.384 0 3 cbr 500 ------- 0 2.0 3.1 34 66
+ 0.385 2 0 cbr 500 ------- 0 2.0 3.1 37 72
- 0.385 2 0 cbr 500 ------- 0 2.0 3.1 37 72
r 0.3852 3 0 ack 40 ------- 1 3.0 1.0 11 67
+ 0.3852 0 1 ack 40 ------- 1 3.0 1.0 11 67
- 0.3852 0 1 ack 40 ------- 1 3.0 1.0 11 67
- 0.3852 0 3 cbr 500 ------- 0 2.0 3.1 22 44
- 0.38816 1 0 tcp 1040 ------- 1 1.0 3.0 21 70
r 0.389 2 0 cbr 500 ------- 0 2.0 3.1 35 68
+ 0.389 0 3 cbr 500 ------- 0 2.0 3.1 35 68
- 0.3892 0 3 tcp 1040 ------- 1 1.0 3.0 13 41
r 0.38984 1 0 tcp 1040 ------- 1 1.0 3.0 19 64
+ 0.38984 0 3 tcp 1040 ------- 1 1.0 3.0 19 64
+ 0.39 2 0 cbr 500 ------- 0 2.0 3.1 38 73
- 0.39 2 0 cbr 500 ------- 0 2.0 3.1 38 73
r 0.3912 0 3 tcp 1040 ------- 1 1.0 3.0 12 37
+ 0.3912 3 0 ack 40 ------- 1 3.0 1.0 12 74
- 0.3912 3 0 ack 40 ------- 1 3.0 1.0 12 74
r 0.394 2 0 cbr 500 ------- 0 2.0 3.1 36 69
+ 0.394 0 3 cbr 500 ------- 0 2.0 3.1 36 69
+ 0.395 2 0 cbr 500 ------- 0 2.0 3.1 39 75
- 0.395 2 0 cbr 500 ------- 0 2.0 3.1 39 75
r 0.3952 0 3 cbr 500 ------- 0 2.0 3.1 21 43
r 0.39552 0 1 ack 40 ------- 1 3.0 1.0 11 67
+ 0.39552 1 0 tcp 1040 ------- 1 1.0 3.0 23 76
+ 0.39552 1 0 tcp 1040 ------- 1 1.0 3.0 24 77
- 0.39648 1 0 tcp 1040 ------- 1 1.0 3.0 22 71
- 0.39752 0 3 cbr 500 ------- 0 2.0 3.1 23 45
r 0.39816 1 0 tcp 1040 ------- 1 1.0 3.0 20 65
+ 0.39816 0 3 tcp 1040 ------- 1 1.0 3.0 20 65
r 0.399 2 0 cbr 500 ------- 0 2.0 3.1 37 72
+ 0.399 0 3 cbr 500 ------- 0 2.0 3.1 37 72
r 0.3992 0 3 cbr 500 ------- 0 2.0 3.1 22 44
+ 0.4 2 0 cbr 500 ------- 0 2.0 3.1 40 78
- 0.4 2 0 cbr 500 ------- 0 2.0 3.1 40 78
r 0.40152 3 0 ack 40 ------- 1 3.0 1.0 12 74
+ 0.40152 0 1 ack 40 ------- 1 3.0 1.0 12 74
- 0.40152 0 1 ack 40 ------- 1 3.0 1.0 12 74
- 0.40152 0 3 tcp 1040 ------- 1 1.0 3.0 14 42
r 0.404 2 0 cbr 500 ------- 0 2.0 3.1 38 73
+ 0.404 0 3 cbr 500 ------- 0 2.0 3.1 38 73
- 0.4048 1 0 tcp 1040 ------- 1 1.0 3.0 23 76
+ 0.405 2 0 cbr 500 ------- 0 2.0 3.1 41 79
- 0.405 2 0 cbr 500 ------- 0 2.0 3.1 41 79
r 0.40648 1 0 tcp 1040 ------- 1 1.0 3.0 21 70
+ 0.40648 0 3 tcp 1040 ------- 1 1.0 3.0 21 70
r 0.40752 0 3 tcp 1040 ------- 1 1.0 3.0 13 41
+ 0.40752 3 0 ack 40 ------- 1 3.0 1.0 13 80
- 0.40752 3 0 ack 40 ------- 1 3.0 1.0 13 80
r 0.409 2 0 cbr 500 ------- 0 2.0 3.1 39 75
+ 0.409 0 3 cbr 500 ------- 0 2.0 3.1 39 75
- 0.40984 0 3 cbr 500 ------- 0 2.0 3.1 24 47
+ 0.41 2 0 cbr 500 ------- 0 2.0 3.1 42 81
- 0.41 2 0 cbr 500 ------- 0 2.0 3.1 42 81
r 0.41152 0 3 cbr 500 ------- 0 2.0 3.1 23 45
r 0.41184 0 1 ack 40 ------- 1 3.0 1.0 12 74
+ 0.41184 1 0 tcp 1040 ------- 1 1.0 3.0 25 82
+ 0.41184 1 0 tcp 1040 ------- 1 1.0 3.0 26 83
- 0.41312 1 0 tcp 1040 ------- 1 1.0 3.0 24 77
- 0.41384 0 3 cbr 500 ------- 0 2.0 3.1 25 48
r 0.414 2 0 cbr 500 ------- 0 2.0 3.1 40 78
+ 0.414 0 3 cbr 500 ------- 0 2.0 3.1 40 78
r 0.4148 1 0 tcp 1040 ------- 1 1.0 3.0 22 71
+ 0.4148 0 3 tcp 1040 ------- 1 1.0 3.0 22 71
+ 0.415 2 0 cbr 500 ------- 0 2.0 3.1 43 84
- 0.415 2 0 cbr 500 ------- 0 2.0 3.1 43 84
r 0.41784 3 0 ack 40 ------- 1 3.0 1.0 13 80
+ 0.41784 0 1 ack 40 ------- 1 3.0 1.0 13 80
- 0.41784 0 1 ack 40 ------- 1 3.0 1.0 13 80
- 0.41784 0 3 cbr 500 ------- 0 2.0 3.1 26 50
r 0.419 2 0 cbr 500 ------- 0 2.0 3.1 41 79
+ 0.419 0 3 cbr 500 ------- 0 2.0 3.1 41 79
r 0.41984 0 3 tcp 1040 ------- 1 1.0 3.0 14 42
+ 0.41984 3 0 ack 40 ------- 1 3.0 1.0 14 85
- 0.41984 3 0 ack 40 ------- 1 3.0 1.0 14 85
+ 0.42 2 0 cbr 500 ------- 0 2.0 3.1 44 86
- 0.42 2 0 cbr 500 ------- 0 2.0 3.1 44 86
- 0.42144 1 0 tcp 1040 ------- 1 1.0 3.0 25 82
- 0.42184 0 3 cbr 500 ------- 0 2.0 3.1 27 51
r 0.42312 1 0 tcp 1040 ------- 1 1.0 3.0 23 76
+ 0.42312 0 3 tcp 1040 ------- 1 1.0 3.0 23 76
r 0.42384 0 3 cbr 500 ------- 0 2.0 3.1 24 47
r 0.424 2 0 cbr 500 ------- 0 2.0 3.1 42 81
+ 0.424 0 3 cbr 500 ------- 0 2.0 3.1 42 81
+ 0.425 2 0 cbr 500 ------- 0 2.0 3.1 45 87
- 0.425 2 0 cbr 500 ------- 0 2.0 3.1 45 87
- 0.42584 0 3 cbr 500 ------- 0 2.0 3.1 28 54
r 0.42784 0 3 cbr 500 ------- 0 2.0 3.1 25 48
r 0.42816 0 1 ack 40 ------- 1 3.0 1.0 13 80
+ 0.42816 1 0 tcp 1040 ------- 1 1.0 3.0 27 88
+ 0.42816 1 0 tcp 1040 ------- 1 1.0 3.0 28 89
r 0.429 2 0 cbr 500 ------- 0 2.0 3.1 43 84
+ 0.429 0 3 cbr 500 ------- 0 2.0 3.1 43 84
- 0.42976 1 0 tcp 1040 ------- 1 1.0 3.0 26 83
- 0.42984 0 3 tcp 1040 ------- 1 1.0 3.0 15 52
+ 0.43 2 0 cbr 500 ------- 0 2.0 3.1 46 90
- 0.43 2 0 cbr 500 ------- 0 2.0 3.1 46 90
r 0.43016 3 0 ack 40 ------- 1 3.0 1.0 14 85
+ 0.43016 0 1 ack 40 ------- 1 3.0 1.0 14 85
- 0.43016 0 1 ack 40 ------- 1 3.0 1.0 14 85
r 0.43144 1 0 tcp 1040 ------- 1 1.0 3.0 24 77
+ 0.43144 0 3 tcp 1040 ------- 1 1.0 3.0 24 77
r 0.43184 0 3 cbr 500 ------- 0 2.0 3.1 26 50
r 0.434 2 0 cbr 500 ------- 0 2.0 3.1 44 86
+ 0.434 0 3 cbr 500 ------- 0 2.0 3.1 44 86
+ 0.435 2 0 cbr 500 ------- 0 2.0 3.1 47 91
- 0.435 2 0 cbr 500 ------- 0 2.0 3.1 47 91
r 0.43584 0 3 cbr 500 ------- 0 2.0 3.1 27 51
- 0.43808 1 0 tcp 1040 ------- 1 1.0 3.0 27 88
- 0.43816 0 3 cbr 500 ------- 0 2.0 3.1 29 55
r 0.439 2 0 cbr 500 ------- 0 2.0 3.1 45 87
+ 0.439 0 3 cbr 500 ------- 0 2.0 3.1 45 87
r 0.43976 1 0 tcp 1040 ------- 1 1.0 3.0 25 82
+ 0.43976 0 3 tcp 1040 ------- 1 1.0 3.0 25 82
r 0.43984 0 3 cbr 500 ------- 0 2.0 3.1 28 54
+ 0.44 2 0 cbr 500 ------- 0 2.0 3.1 48 92
- 0.44 2 0 cbr 500 ------- 0 2.0 3.1 48 92
r 0.44048 0 1 ack 40 ------- 1 3.0 1.0 14 85
+ 0.44048 1 0 tcp 1040 ------- 1 1.0 3.0 29 93
+ 0.44048 1 0 tcp 1040 ------- 1 1.0 3.0 30 94
- 0.44216 0 3 cbr 500 ------- 0 2.0 3.1 30 57
r 0.444 2 0 cbr 500 ------- 0 2.0 3.1 46 90
+ 0.444 0 3 cbr 500 ------- 0 2.0 3.1 46 90
+ 0.445 2 0 cbr 500 ------- 0 2.0 3.1 49 95
- 0.445 2 0 cbr 500 ------- 0 2.0 3.1 49 95
- 0.44616 0 3 tcp 1040 ------- 1 1.0 3.0 16 53
- 0.4464 1 0 tcp 1040 ------- 1 1.0 3.0 28 89
r 0.44808 1 0 tcp 1040 ------- 1 1.0 3.0 26 83
+ 0.44808 0 3 tcp 1040 ------- 1 1.0 3.0 26 83
r 0.44816 0 3 tcp 1040 ------- 1 1.0 3.0 15 52
+ 0.44816 3 0 ack 40 ------- 1 3.0 1.0 15 96
- 0.44816 3 0 ack 40 ------- 1 3.0 1.0 15 96
r 0.449 2 0 cbr 500 ------- 0 2.0 3.1 47 91
+ 0.449 0 3 cbr 500 ------- 0 2.0 3.1 47 91
+ 0.45 2 0 cbr 500 ------- 0 2.0 3.1 50 97
- 0.45 2 0 cbr 500 ------- 0 2.0 3.1 50 97
r 0.45216 0 3 cbr 500 ------- 0 2.0 3.1 29 55
r 0.454 2 0 cbr 500 ------- 0 2.0 3.1 48 92
+ 0.454 0 3 cbr 500 ------- 0 2.0 3.1 48 92
- 0.45448 0 3 cbr 500 ------- 0 2.0 3.1 31 60
- 0.45472 1 0 tcp 1040 ------- 1 1.0 3.0 29 93
+ 0.455 2 0 cbr 500 ------- 0 2.0 3.1 51 98
- 0.455 2 0 cbr 500 ------- 0 2.0 3.1 51 98
r 0.45616 0 3 cbr 500 ------- 0 2.0 3.1 30 57
r 0.4564 1 0 tcp 1040 ------- 1 1.0 3.0 27 88
+ 0.4564 0 3 tcp 1040 ------- 1 1.0 3.0 27 88
r 0.45848 3 0 ack 40 ------- 1 3.0 1.0 15 96
+ 0.45848 0 1 ack 40 ------- 1 3.0 1.0 15 96
- 0.45848 0 1 ack 40 ------- 1 3.0 1.0 15 96
- 0.45848 0 3 tcp 1040 ------- 1 1.0 3.0 17 58
r 0.459 2 0 cbr 500 ------- 0 2.0 3.1 49 95
+ 0.459 0 3 cbr 500 ------- 0 2.0 3.1 49 95
+ 0.46 2 0 cbr 500 ------- 0 2.0 3.1 52 99
- 0.46 2 0 cbr 500 ------- 0 2.0 3.1 52 99
- 0.46304 1 0 tcp 1040 ------- 1 1.0 3.0 30 94
r 0.464 2 0 cbr 500 ------- 0 2.0 3.1 50 97
+ 0.464 0 3 cbr 500 ------- 0 2.0 3.1 50 97
r 0.46448 0 3 tcp 1040 ------- 1 1.0 3.0 16 53
+ 0.46448 3 0 ack 40 ------- 1 3.0 1.0 16 100
- 0.46448 3 0 ack 40 ------- 1 3.0 1.0 16 100
r 0.46472 1 0 tcp 1040 ------- 1 1.0 3.0 28 89
+ 0.46472 0 3 tcp 1040 ------- 1 1.0 3.0 28 89
+ 0.465 2 0 cbr 500 ------- 0 2.0 3.1 53 101
- 0.465 2 0 cbr 500 ------- 0 2.0 3.1 53 101
- 0.4668 0 3 cbr 500 ------- 0 2.0 3.1 32 61
r 0.46848 0 3 cbr 500 ------- 0 2.0 3.1 31 60
r 0.4688 0 1 ack 40 ------- 1 3.0 1.0 15 96
+ 0.4688 1 0 tcp 1040 ------- 1 1.0 3.0 31 102
+ 0.4688 1 0 tcp 1040 ------- 1 1.0 3.0 32 103
r 0.469 2 0 cbr 500 ------- 0 2.0 3.1 51 98
+ 0.469 0 3 cbr 500 ------- 0 2.0 3.1 51 98
+ 0.47 2 0 cbr 500 ------- 0 2.0 3.1 54 104
- 0.47 2 0 cbr 500 ------- 0 2.0 3.1 54 104
- 0.4708 0 3 cbr 500 ------- 0 2.0 3.1 33 63
- 0.47136 1 0 tcp 1040 ------- 1 1.0 3.0 31 102
r 0.47304 1 0 tcp 1040 ------- 1 1.0 3.0 29 93
+ 0.47304 0 3 tcp 1040 ------- 1 1.0 3.0 29 93
r 0.474 2 0 cbr 500 ------- 0 2.0 3.1 52 99
+ 0.474 0 3 cbr 500 ------- 0 2.0 3.1 52 99
r 0.4748 3 0 ack 40 ------- 1 3.0 1.0 16 100
+ 0.4748 0 1 ack 40 ------- 1 3.0 1.0 16 100
- 0.4748 0 1 ack 40 ------- 1 3.0 1.0 16 100
- 0.4748 0 3 tcp 1040 ------- 1 1.0 3.0 18 59
+ 0.475 2 0 cbr 500 ------- 0 2.0 3.1 55 105
- 0.475 2 0 cbr 500 ------- 0 2.0 3.1 55 105
r 0.4768 0 3 tcp 1040 ------- 1 1.0 3.0 17 58
+ 0.4768 3 0 ack 40 ------- 1 3.0 1.0 17 106
- 0.4768 3 0 ack 40 ------- 1 3.0 1.0 17 106
r 0.479 2 0 cbr 500 ------- 0 2.0 3.1 53 101
+ 0.479 0 3 cbr 500 ------- 0 2.0 3.1 53 101
- 0.47968 1 0 tcp 1040 ------- 1 1.0 3.0 32 103
+ 0.48 2 0 cbr 500 ------- 0 2.0 3.1 56 107
- 0.48 2 0 cbr 500 ------- 0 2.0 3.1 56 107
r 0.4808 0 3 cbr 500 ------- 0 2.0 3.1 32 61
r 0.48136 1 0 tcp 1040 ------- 1 1.0 3.0 30 94
+ 0.48136 0 3 tcp 1040 ------- 1 1.0 3.0 30 94
- 0.48312 0 3 cbr 500 ------- 0 2.0 3.1 34 66
r 0.484 2 0 cbr 500 ------- 0 2.0 3.1 54 104
+ 0.484 0 3 cbr 500 ------- 0 2.0 3.1 54 104
r 0.4848 0 3 cbr 500 ------- 0 2.0 3.1 33 63
+ 0.485 2 0 cbr 500 ------- 0 2.0 3.1 57 108
- 0.485 2 0 cbr 500 ------- 0 2.0 3.1 57 108
r 0.48512 0 1 ack 40 ------- 1 3.0 1.0 16 100
+ 0.48512 1 0 tcp 1040 ------- 1 1.0 3.0 33 109
+ 0.48512 1 0 tcp 1040 ------- 1 1.0 3.0 34 110
r 0.48712 3 0 ack 40 ------- 1 3.0 1.0 17 106
+ 0.48712 0 1 ack 40 ------- 1 3.0 1.0 17 106
- 0.48712 0 1 ack 40 ------- 1 3.0 1.0 17 106
- 0.48712 0 3 cbr 500 ------- 0 2.0 3.1 35 68
- 0.488 1 0 tcp 1040 ------- 1 1.0 3.0 33 109
r 0.489 2 0 cbr 500 ------- 0 2.0 3.1 55 105
+ 0.489 0 3 cbr 500 ------- 0 2.0 3.1 55 105
r 0.48968 1 0 tcp 1040 ------- 1 1.0 3.0 31 102
+ 0.48968 0 3 tcp 1040 ------- 1 1.0 3.0 31 102
+ 0.49 2 0 cbr 500 ------- 0 2.0 3.1 58 111
- 0.49 2 0 cbr 500 ------- 0 2.0 3.1 58 111
- 0.49112 0 3 tcp 1040 ------- 1 1.0 3.0 19 64
r 0.49312 0 3 tcp 1040 ------- 1 1.0 3.0 18 59
+ 0.49312 3 0 ack 40 ------- 1 3.0 1.0 18 112
- 0.49312 3 0 ack 40 ------- 1 3.0 1.0 18 112
r 0.494 2 0 cbr 500 ------- 0 2.0 3.1 56 107
+ 0.494 0 3 cbr 500 ------- 0 2.0 3.1 56 107
+ 0.495 2 0 cbr 500 ------- 0 2.0 3.1 59 113
- 0.495 2 0 cbr 500 ------- 0 2.0 3.1 59 113
- 0.49632 1 0 tcp 1040 ------- 1 1.0 3.0 34 110
r 0.49712 0 3 cbr 500 ------- 0 2.0 3.1 34 66
r 0.49744 0 1 ack 40 ------- 1 3.0 1.0 17 106
+ 0.49744 1 0 tcp 1040 ------- 1 1.0 3.0 35 114
+ 0.49744 1 0 tcp 1040 ------- 1 1.0 3.0 36 115
r 0.498 1 0 tcp 1040 ------- 1 1.0 3.0 32 103
+ 0.498 0 3 tcp 1040 ------- 1 1.0 3.0 32 103
r 0.499 2 0 cbr 500 ------- 0 2.0 3.1 57 108
+ 0.499 0 3 cbr 500 ------- 0 2.0 3.1 57 108
- 0.49944 0 3 cbr 500 ------- 0 2.0 3.1 36 69
+ 0.5 2 0 cbr 500 ------- 0 2.0 3.1 60 116
- 0.5 2 0 cbr 500 ------- 0 2.0 3.1 60 116
r 0.50112 0 3 cbr 500 ------- 0 2.0 3.1 35 68
- 0.50344 0 3 tcp 1040 ------- 1 1.0 3.0 20 65
r 0.50344 3 0 ack 40 ------- 1 3.0 1.0 18 112
+ 0.50344 0 1 ack 40 ------- 1 3.0 1.0 18 112
- 0.50344 0 1 ack 40 ------- 1 3.0 1.0 18 112
r 0.504 2 0 cbr 500 ------- 0 2.0 3.1 58 111
+ 0.504 0 3 cbr 500 ------- 0 2.0 3.1 58 111
- 0.50464 1 0 tcp 1040 ------- 1 1.0 3.0 35 114
+ 0.505 2 0 cbr 500 ------- 0 2.0 3.1 61 117
- 0.505 2 0 cbr 500 ------- 0 2.0 3.1 61 117
r 0.50632 1 0 tcp 1040 ------- 1 1.0 3.0 33 109
+ 0.50632 0 3 tcp 1040 ------- 1 1.0 3.0 33 109
r 0.509 2 0 cbr 500 ------- 0 2.0 3.1 59 113
+ 0.509 0 3 cbr 500 ------- 0 2.0 3.1 59 113
r 0.50944 0 3 tcp 1040 ------- 1 1.0 3.0 19 64
+ 0.50944 3 0 ack 40 ------- 1 3.0 1.0 19 118
- 0.50944 3 0 ack 40 ------- 1 3.0 1.0 19 118
+ 0.51 2 0 cbr 500 ------- 0 2.0 3.1 62 119
- 0.51 2 0 cbr 500 ------- 0 2.0 3.1 62 119
- 0.51176 0 3 cbr 500 ------- 0 2.0 3.1 37 72
- 0.51296 1 0 tcp 1040 ------- 1 1.0 3.0 36 115
r 0.51344 0 3 cbr 500 ------- 0 2.0 3.1 36 69
r 0.51376 0 1 ack 40 ------- 1 3.0 1.0 18 112
+ 0.51376 1 0 tcp 1040 ------- 1 1.0 3.0 37 120
+ 0.51376 1 0 tcp 1040 ------- 1 1.0 3.0 38 121
r 0.514 2 0 cbr 500 ------- 0 2.0 3.1 60 116
+ 0.514 0 3 cbr 500 ------- 0 2.0 3.1 60 116
r 0.51464 1 0 tcp 1040 ------- 1 1.0 3.0 34 110
+ 0.51464 0 3 tcp 1040 ------- 1 1.0 3.0 34 110
+ 0.515 2 0 cbr 500 ------- 0 2.0 3.1 63 122
- 0.515 2 0 cbr 500 ------- 0 2.0 3.1 63 122
- 0.51576 0 3 cbr 500 ------- 0 2.0 3.1 38 73
r 0.519 2 0 cbr 500 ------- 0 2.0 3.1 61 117
+ 0.519 0 3 cbr 500 ------- 0 2.0 3.1 61 117
r 0.51976 3 0 ack 40 ------- 1 3.0 1.0 19 118
+ 0.51976 0 1 ack 40 ------- 1 3.0 1.0 19 118
- 0.51976 0 1 ack 40 ------- 1 3.0 1.0 19 118
- 0.51976 0 3 tcp 1040 ------- 1 1.0 3.0 21 70
+ 0.52 2 0 cbr 500 ------- 0 2.0 3.1 64 123
- 0.52 2 0 cbr 500 ------- 0 2.0 3.1 64 123
- 0.52128 1 0 tcp 1040 ------- 1 1.0 3.0 37 120
r 0.52176 0 3 tcp 1040 ------- 1 1.0 3.0 20 65
+ 0.52176 3 0 ack 40 ------- 1 3.0 1.0 20 124
- 0.52176 3 0 ack 40 ------- 1 3.0 1.0 20 124
r 0.52296 1 0 tcp 1040 ------- 1 1.0 3.0 35 114
+ 0.52296 0 3 tcp 1040 ------- 1 1.0 3.0 35 114
r 0.524 2 0 cbr 500 ------- 0 2.0 3.1 62 119
+ 0.524 0 3 cbr 500 ------- 0 2.0 3.1 62 119
+ 0.525 2 0 cbr 500 ------- 0 2.0 3.1 65 125
- 0.525 2 0 cbr 500 ------- 0 2.0 3.1 65 125
r 0.52576 0 3 cbr 500 ------- 0 2.0 3.1 37 72
- 0.52808 0 3 cbr 500 ------- 0 2.0 3.1 39 75
r 0.529 2 0 cbr 500 ------- 0 2.0 3.1 63 122
+ 0.529 0 3 cbr 500 ------- 0 2.0 3.1 63 122
- 0.5296 1 0 tcp 1040 ------- 1 1.0 3.0 38 121
r 0.52976 0 3 cbr 500 ------- 0 2.0 3.1 38 73
+ 0.53 2 0 cbr 500 ------- 0 2.0 3.1 66 126
- 0.53 2 0 cbr 500 ------- 0 2.0 3.1 66 126
r 0.53008 0 1 ack 40 ------- 1 3.0 1.0 19 118
+ 0.53008 1 0 tcp 1040 ------- 1 1.0 3.0 39 127
r 0.53128 1 0 tcp 1040 ------- 1 1.0 3.0 36 115
+ 0.53128 0 3 tcp 1040 ------- 1 1.0 3.0 36 115
r 0.53208 3 0 ack 40 ------- 1 3.0 1.0 20 124
+ 0.53208 0 1 ack 40 ------- 1 3.0 1.0 20 124
- 0.53208 0 1 ack 40 ------- 1 3.0 1.0 20 124
- 0.53208 0 3 cbr 500 ------- 0 2.0 3.1 40 78
r 0.534 2 0 cbr 500 ------- 0 2.0 3.1 64 123
+ 0.534 0 3 cbr 500 ------- 0 2.0 3.1 64 123
+ 0.535 2 0 cbr 500 ------- 0 2.0 3.1 67 128
- 0.535 2 0 cbr 500 ------- 0 2.0 3.1 67 128
- 0.53608 0 3 tcp 1040 ------- 1 1.0 3.0 22 71