V -t * -v 1.0a5 -a 0
A -t * -n 1 -p 0 -o 0x7fffffff -c 30 -a 1
A -t * -h 1 -m 1073741823 -s 0
c -t * -i 1 -n Blue
c -t * -i 2 -n Red
n -t * -a 4 -s 4 -S UP -v circle -c Blue -i Blue
n -t * -a 0 -s 0 -S UP -v circle -c Blue -i Blue
n -t * -a 5 -s 5 -S UP -v box -c Red -i Red
n -t * -a 1 -s 1 -S UP -v box -c Red -i Red
n -t * -a 2 -s 2 -S UP -v circle -c black -i black
n -t * -a 3 -s 3 -S UP -v circle -c black -i black
l -t * -s 0 -d 2 -S UP -r 2000000 -D 0.01 -c black -o right-down
l -t * -s 1 -d 2 -S UP -r 2000000 -D 0.01 -c black -o right-up
l -t * -s 2 -d 3 -S UP -r 300000 -D 0.10000000000000001 -c black -o right
X -t * -n 6 -r 0.5Mb -D 40ms -o left
L -t * -s 6 -d 3 -o up
L -t * -s 6 -d 4 -o down
L -t * -s 6 -d 5 -o up
n -t 0 -s 0 -S DLABEL -l "TCP_Traffic" -L ""
n -t 0 -s 1 -S DLABEL -l "UDP_Traffic" -L ""
+ -t 0.3 -s 1 -d 2 -p cbr -e 210 -c 2 -i 0 -a 2 -x {1.0 5.0 0 ------- null}
- -t 0.3 -s 1 -d 2 -p cbr -e 210 -c 2 -i 0 -a 2 -x {1.0 5.0 0 ------- null}
h -t 0.3 -s 1 -d 2 -p cbr -e 210 -c 2 -i 0 -a 2 -x {1.0 5.0 -1 ------- null}
+ -t 0.30375 -s 1 -d 2 -p cbr -e 210 -c 2 -i 1 -a 2 -x {1.0 5.0 1 ------- null}
- -t 0.30375 -s 1 -d 2 -p cbr -e 210 -c 2 -i 1 -a 2 -x {1.0 5.0 1 ------- null}
h -t 0.30375 -s 1 -d 2 -p cbr -e 210 -c 2 -i 1 -a 2 -x {1.0 5.0 -1 ------- null}
+ -t 0.3075 -s 1 -d 2 -p cbr -e 210 -c 2 -i 2 -a 2 -x {1.0 5.0 2 ------- null}
- -t 0.3075 -s 1 -d 2 -p cbr -e 210 -c 2 -i 2 -a 2 -x {1.0 5.0 2 ------- null}
h -t 0.3075 -s 1 -d 2 -p cbr -e 210 -c 2 -i 2 -a 2 -x {1.0 5.0 -1 ------- null}
r -t 0.31084 -s 1 -d 2 -p cbr -e 210 -c 2 -i 0 -a 2 -x {1.0 5.0 0 ------- null}
+ -t 0.31084 -s 2 -d 3 -p cbr -e 210 -c 2 -i 0 -a 2 -x {1.0 5.0 0 ------- null}
- -t 0.31084 -s 2 -d 3 -p cbr -e 210 -c 2 -i 0 -a 2 -x {1.0 5.0 0 ------- null}
h -t 0.31084 -s 2 -d 3 -p cbr -e 210 -c 2 -i 0 -a 2 -x {1.0 5.0 -1 ------- null}
+ -t 0.31125 -s 1 -d 2 -p cbr -e 210 -c 2 -i 3 -a 2 -x {1.0 5.0 3 ------- null}
- -t 0.31125 -s 1 -d 2 -p cbr -e 210 -c 2 -i 3 -a 2 -x {1.0 5.0 3 ------- null}
h -t 0.31125 -s 1 -d 2 -p cbr -e 210 -c 2 -i 3 -a 2 -x {1.0 5.0 -1 ------- null}
r -t 0.31459 -s 1 -d 2 -p cbr -e 210 -c 2 -i 1 -a 2 -x {1.0 5.0 1 ------- null}
+ -t 0.31459 -s 2 -d 3 -p cbr -e 210 -c 2 -i 1 -a 2 -x {1.0 5.0 1 ------- null}
+ -t 0.315 -s 1 -d 2 -p cbr -e 210 -c 2 -i 4 -a 2 -x {1.0 5.0 4 ------- null}
- -t 0.315 -s 1 -d 2 -p cbr -e 210 -c 2 -i 4 -a 2 -x {1.0 5.0 4 ------- null}
h -t 0.315 -s 1 -d 2 -p cbr -e 210 -c 2 -i 4 -a 2 -x {1.0 5.0 -1 ------- null}
- -t 0.31644 -s 2 -d 3 -p cbr -e 210 -c 2 -i 1 -a 2 -x {1.0 5.0 1 ------- null}
h -t 0.31644 -s 2 -d 3 -p cbr -e 210 -c 2 -i 1 -a 2 -x {1.0 5.0 -1 ------- null}
r -t 0.31834 -s 1 -d 2 -p cbr -e 210 -c 2 -i 2 -a 2 -x {1.0 5.0 2 ------- null}
+ -t 0.31834 -s 2 -d 3 -p cbr -e 210 -c 2 -i 2 -a 2 -x {1.0 5.0 2 ------- null}
+ -t 0.31875 -s 1 -d 2 -p cbr -e 210 -c 2 -i 5 -a 2 -x {1.0 5.0 5 ------- null}
- -t 0.31875 -s 1 -d 2 -p cbr -e 210 -c 2 -i 5 -a 2 -x {1.0 5.0 5 ------- null}
h -t 0.31875 -s 1 -d 2 -p cbr -e 210 -c 2 -i 5 -a 2 -x {1.0 5.0 -1 ------- null}
- -t 0.32204 -s 2 -d 3 -p cbr -e 210 -c 2 -i 2 -a 2 -x {1.0 5.0 2 ------- null}
h -t 0.32204 -s 2 -d 3 -p cbr -e 210 -c 2 -i 2 -a 2 -x {1.0 5.0 -1 ------- null}
r -t 0.32209 -s 1 -d 2 -p cbr -e 210 -c 2 -i 3 -a 2 -x {1.0 5.0 3 ------- null}
+ -t 0.32209 -s 2 -d 3 -p cbr -e 210 -c 2 -i 3 -a 2 -x {1.0 5.0 3 ------- null}
+ -t 0.3225 -s 1 -d 2 -p cbr -e 210 -c 2 -i 6 -a 2 -x {1.0 5.0 6 ------- null}
- -t 0.3225 -s 1 -d 2 -p cbr -e 210 -c 2 -i 6 -a 2 -x {1.0 5.0 6 ------- null}
h -t 0.3225 -s 1 -d 2 -p cbr -e 210 -c 2 -i 6 -a 2 -x {1.0 5.0 -1 ------- null}
r -t 0.32584 -s 1 -d 2 -p cbr -e 210 -c 2 -i 4 -a 2 -x {1.0 5.0 4 ------- null}
+ -t 0.32584 -s 2 -d 3 -p cbr -e 210 -c 2 -i 4 -a 2 -x {1.0 5.0 4 ------- null}
+ -t 0.32625 -s 1 -d 2 -p cbr -e 210 -c 2 -i 7 -a 2 -x {1.0 5.0 7 ------- null}
- -t 0.32625 -s 1 -d 2 -p cbr -e 210 -c 2 -i 7 -a 2 -x {1.0 5.0 7 ------- null}
h -t 0.32625 -s 1 -d 2 -p cbr -e 210 -c 2 -i 7 -a 2 -x {1.0 5.0 -1 ------- null}
- -t 0.32764 -s 2 -d 3 -p cbr -e 210 -c 2 -i 3 -a 2 -x {1.0 5.0 3 ------- null}
h -t 0.32764 -s 2 -d 3 -p cbr -e 210 -c 2 -i 3 -a 2 -x {1.0 5.0 -1 ------- null}
r -t 0.32959 -s 1 -d 2 -p cbr -e 210 -c 2 -i 5 -a 2 -x {1.0 5.0 5 ------- null}
+ -t 0.32959 -s 2 -d 3 -p cbr -e 210 -c 2 -i 5 -a 2 -x {1.0 5.0 5 ------- null}
+ -t 0.33 -s 1 -d 2 -p cbr -e 210 -c 2 -i 8 -a 2 -x {1.0 5.0 8 ------- null}
- -t 0.33 -s 1 -d 2 -p cbr -e 210 -c 2 -i 8 -a 2 -x {1.0 5.0 8 ------- null}
h -t 0.33 -s 1 -d 2 -p cbr -e 210 -c 2 -i 8 -a 2 -x {1.0 5.0 -1 ------- null}
- -t 0.33324 -s 2 -d 3 -p cbr -e 210 -c 2 -i 4 -a 2 -x {1.0 5.0 4 ------- null}
h -t 0.33324 -s 2 -d 3 -p cbr -e 210 -c 2 -i 4 -a 2 -x {1.0 5.0 -1 ------- null}
r -t 0.33334 -s 1 -d 2 -p cbr -e 210 -c 2 -i 6 -a 2 -x {1.0 5.0 6 ------- null}
+ -t 0.33334 -s 2 -d 3 -p cbr -e 210 -c 2 -i 6 -a 2 -x {1.0 5.0 6 ------- null}
+ -t 0.33375 -s 1 -d 2 -p cbr -e 210 -c 2 -i 9 -a 2 -x {1.0 5.0 9 ------- null}
- -t 0.33375 -s 1 -d 2 -p cbr -e 210 -c 2 -i 9 -a 2 -x {1.0 5.0 9 ------- null}
h -t 0.33375 -s 1 -d 2 -p cbr -e 210 -c 2 -i 9 -a 2 -x {1.0 5.0 -1 ------- null}
r -t 0.33709 -s 1 -d 2 -p cbr -e 210 -c 2 -i 7 -a 2 -x {1.0 5.0 7 ------- null}
+ -t 0.33709 -s 2 -d 3 -p cbr -e 210 -c 2 -i 7 -a 2 -x {1.0 5.0 7 ------- null}
+ -t 0.3375 -s 1 -d 2 -p cbr -e 210 -c 2 -i 10 -a 2 -x {1.0 5.0 10 ------- null}
- -t 0.3375 -s 1 -d 2 -p cbr -e 210 -c 2 -i 10 -a 2 -x {1.0 5.0 10 ------- null}
h -t 0.3375 -s 1 -d 2 -p cbr -e 210 -c 2 -i 10 -a 2 -x {1.0 5.0 -1 ------- null}
- -t 0.33884 -s 2 -d 3 -p cbr -e 210 -c 2 -i 5 -a 2 -x {1.0 5.0 5 ------- null}
h -t 0.33884 -s 2 -d 3 -p cbr -e 210 -c 2 -i 5 -a 2 -x {1.0 5.0 -1 ------- null}
r -t 0.34084 -s 1 -d 2 -p cbr -e 210 -c 2 -i 8 -a 2 -x {1.0 5.0 8 ------- null}
+ -t 0.34084 -s 2 -d 3 -p cbr -e 210 -c 2 -i 8 -a 2 -x {1.0 5.0 8 ------- null}
+ -t 0.34125 -s 1 -d 2 -p cbr -e 210 -c 2 -i 11 -a 2 -x {1.0 5.0 11 ------- null}
- -t 0.34125 -s 1 -d 2 -p cbr -e 210 -c 2 -i 11 -a 2 -x {1.0 5.0 11 ------- null}
h -t 0.34125 -s 1 -d 2 -p cbr -e 210 -c 2 -i 11 -a 2 -x {1.0 5.0 -1 ------- null}
- -t 0.34444 -s 2 -d 3 -p cbr -e 210 -c 2 -i 6 -a 2 -x {1.0 5.0 6 ------- null}
h -t 0.34444 -s 2 -d 3 -p cbr -e 210 -c 2 -i 6 -a 2 -x {1.0 5.0 -1 ------- null}
r -t 0.34459 -s 1 -d 2 -p cbr -e 210 -c 2 -i 9 -a 2 -x {1.0 5.0 9 ------- null}
+ -t 0.34459 -s 2 -d 3 -p cbr -e 210 -c 2 -i 9 -a 2 -x {1.0 5.0 9 ------- null}
+ -t 0.345 -s 1 -d 2 -p cbr -e 210 -c 2 -i 12 -a 2 -x {1.0 5.0 12 ------- null}
- -t 0.345 -s 1 -d 2 -p cbr -e 210 -c 2 -i 12 -a 2 -x {1.0 5.0 12 ------- null}
h -t 0.345 -s 1 -d 2 -p cbr -e 210 -c 2 -i 12 -a 2 -x {1.0 5.0 -1 ------- null}
r -t 0.34834 -s 1 -d 2 -p cbr -e 210 -c 2 -i 10 -a 2 -x {1.0 5.0 10 ------- null}
+ -t 0.34834 -s 2 -d 3 -p cbr -e 210 -c 2 -i 10 -a 2 -x {1.0 5.0 10 ------- null}
+ -t 0.34875 -s 1 -d 2 -p cbr -e 210 -c 2 -i 13 -a 2 -x {1.0 5.0 13 ------- null}
- -t 0.34875 -s 1 -d 2 -p cbr -e 210 -c 2 -i 13 -a 2 -x {1.0 5.0 13 ------- null}
h -t 0.34875 -s 1 -d 2 -p cbr -e 210 -c 2 -i 13 -a 2 -x {1.0 5.0 -1 ------- null}
- -t 0.35004 -s 2 -d 3 -p cbr -e 210 -c 2 -i 7 -a 2 -x {1.0 5.0 7 ------- null}
h -t 0.35004 -s 2 -d 3 -p cbr -e 210 -c 2 -i 7 -a 2 -x {1.0 5.0 -1 ------- null}
r -t 0.35209 -s 1 -d 2 -p cbr -e 210 -c 2 -i 11 -a 2 -x {1.0 5.0 11 ------- null}
+ -t 0.35209 -s 2 -d 3 -p cbr -e 210 -c 2 -i 11 -a 2 -x {1.0 5.0 11 ------- null}
+ -t 0.3525 -s 1 -d 2 -p cbr -e 210 -c 2 -i 14 -a 2 -x {1.0 5.0 14 ------- null}
- -t 0.3525 -s 1 -d 2 -p cbr -e 210 -c 2 -i 14 -a 2 -x {1.0 5.0 14 ------- null}
h -t 0.3525 -s 1 -d 2 -p cbr -e 210 -c 2 -i 14 -a 2 -x {1.0 5.0 -1 ------- null}
- -t 0.35564 -s 2 -d 3 -p cbr -e 210 -c 2 -i 8 -a 2 -x {1.0 5.0 8 ------- null}
h -t 0.35564 -s 2 -d 3 -p cbr -e 210 -c 2 -i 8 -a 2 -x {1.0 5.0 -1 ------- null}
r -t 0.35584 -s 1 -d 2 -p cbr -e 210 -c 2 -i 12 -a 2 -x {1.0 5.0 12 ------- null}
+ -t 0.35584 -s 2 -d 3 -p cbr -e 210 -c 2 -i 12 -a 2 -x {1.0 5.0 12 ------- null}
+ -t 0.35625 -s 1 -d 2 -p cbr -e 210 -c 2 -i 15 -a 2 -x {1.0 5.0 15 ------- null}
- -t 0.35625 -s 1 -d 2 -p cbr -e 210 -c 2 -i 15 -a 2 -x {1.0 5.0 15 ------- null}
h -t 0.35625 -s 1 -d 2 -p cbr -e 210 -c 2 -i 15 -a 2 -x {1.0 5.0 -1 ------- null}
r -t 0.35959 -s 1 -d 2 -p cbr -e 210 -c 2 -i 13 -a 2 -x {1.0 5.0 13 ------- null}
+ -t 0.35959 -s 2 -d 3 -p cbr -e 210 -c 2 -i 13 -a 2 -x {1.0 5.0 13 ------- null}
+ -t 0.36 -s 1 -d 2 -p cbr -e 210 -c 2 -i 16 -a 2 -x {1.0 5.0 16 ------- null}
- -t 0.36 -s 1 -d 2 -p cbr -e 210 -c 2 -i 16 -a 2 -x {1.0 5.0 16 ------- null}
h -t 0.36 -s 1 -d 2 -p cbr -e 210 -c 2 -i 16 -a 2 -x {1.0 5.0 -1 ------- null}
- -t 0.36124 -s 2 -d 3 -p cbr -e 210 -c 2 -i 9 -a 2 -x {1.0 5.0 9 ------- null}
h -t 0.36124 -s 2 -d 3 -p cbr -e 210 -c 2 -i 9 -a 2 -x {1.0 5.0 -1 ------- null}
r -t 0.36334 -s 1 -d 2 -p cbr -e 210 -c 2 -i 14 -a 2 -x {1.0 5.0 14 ------- null}
+ -t 0.36334 -s 2 -d 3 -p cbr -e 210 -c 2 -i 14 -a 2 -x {1.0 5.0 14 ------- null}
+ -t 0.36375 -s 1 -d 2 -p cbr -e 210 -c 2 -i 17 -a 2 -x {1.0 5.0 17 ------- null}
- -t 0.36375 -s 1 -d 2 -p cbr -e 210 -c 2 -i 17 -a 2 -x {1.0 5.0 17 ------- null}
h -t 0.36375 -s 1 -d 2 -p cbr -e 210 -c 2 -i 17 -a 2 -x {1.0 5.0 -1 ------- null}
- -t 0.36684 -s 2 -d 3 -p cbr -e 210 -c 2 -i 10 -a 2 -x {1.0 5.0 10 ------- null}
h -t 0.36684 -s 2 -d 3 -p cbr -e 210 -c 2 -i 10 -a 2 -x {1.0 5.0 -1 ------- null}
r -t 0.36709 -s 1 -d 2 -p cbr -e 210 -c 2 -i 15 -a 2 -x {1.0 5.0 15 ------- null}
+ -t 0.36709 -s 2 -d 3 -p cbr -e 210 -c 2 -i 15 -a 2 -x {1.0 5.0 15 ------- null}
+ -t 0.3675 -s 1 -d 2 -p cbr -e 210 -c 2 -i 18 -a 2 -x {1.0 5.0 18 ------- null}
- -t 0.3675 -s 1 -d 2 -p cbr -e 210 -c 2 -i 18 -a 2 -x {1.0 5.0 18 ------- null}
h -t 0.3675 -s 1 -d 2 -p cbr -e 210 -c 2 -i 18 -a 2 -x {1.0 5.0 -1 ------- null}
r -t 0.37084 -s 1 -d 2 -p cbr -e 210 -c 2 -i 16 -a 2 -x {1.0 5.0 16 ------- null}
+ -t 0.37084 -s 2 -d 3 -p cbr -e 210 -c 2 -i 16 -a 2 -x {1.0 5.0 16 ------- null}
+ -t 0.37125 -s 1 -d 2 -p cbr -e 210 -c 2 -i 19 -a 2 -x {1.0 5.0 19 ------- null}
- -t 0.37125 -s 1 -d 2 -p cbr -e 210 -c 2 -i 19 -a 2 -x {1.0 5.0 19 ------- null}
h -t 0.37125 -s 1 -d 2 -p cbr -e 210 -c 2 -i 19 -a 2 -x {1.0 5.0 -1 ------- null}
- -t 0.37244 -s 2 -d 3 -p cbr -e 210 -c 2 -i 11 -a 2 -x {1.0 5.0 11 ------- null}
h -t 0.37244 -s 2 -d 3 -p cbr -e 210 -c 2 -i 11 -a 2 -x {1.0 5.0 -1 ------- null}
r -t 0.37459 -s 1 -d 2 -p cbr -e 210 -c 2 -i 17 -a 2 -x {1.0 5.0 17 ------- null}
+ -t 0.37459 -s 2 -d 3 -p cbr -e 210 -c 2 -i 17 -a 2 -x {1.0 5.0 17 ------- null}
+ -t 0.375 -s 1 -d 2 -p cbr -e 210 -c 2 -i 20 -a 2 -x {1.0 5.0 20 ------- null}
- -t 0.375 -s 1 -d 2 -p cbr -e 210 -c 2 -i 20 -a 2 -x {1.0 5.0 20 ------- null}
h -t 0.375 -s 1 -d 2 -p cbr -e 210 -c 2 -i 20 -a 2 -x {1.0 5.0 -1 ------- null}
- -t 0.37804 -s 2 -d 3 -p cbr -e 210 -c 2 -i 12 -a 2 -x {1.0 5.0 12 ------- null}
h -t 0.37804 -s 2 -d 3 -p cbr -e 210 -c 2 -i 12 -a 2 -x {1.0 5.0 -1 ------- null}
r -t 0.37834 -s 1 -d 2 -p cbr -e 210 -c 2 -i 18 -a 2 -x {1.0 5.0 18 ------- null}
+ -t 0.37834 -s 2 -d 3 -p cbr -e 210 -c 2 -i 18 -a 2 -x {1.0 5.0 18 ------- null}
+ -t 0.378749999999999 -s 1 -d 2 -p cbr -e 210 -c 2 -i 21 -a 2 -x {1.0 5.0 21 ------- null}
- -t 0.378749999999999 -s 1 -d 2 -p cbr -e 210 -c 2 -i 21 -a 2 -x {1.0 5.0 21 ------- null}
h -t 0.378749999999999 -s 1 -d 2 -p cbr -e 210 -c 2 -i 21 -a 2 -x {1.0 5.0 -1 ------- null}
r -t 0.38209 -s 1 -d 2 -p cbr -e 210 -c 2 -i 19 -a 2 -x {1.0 5.0 19 ------- null}
+ -t 0.38209 -s 2 -d 3 -p cbr -e 210 -c 2 -i 19 -a 2 -x {1.0 5.0 19 ------- null}
+ -t 0.382499999999999 -s 1 -d 2 -p cbr -e 210 -c 2 -i 22 -a 2 -x {1.0 5.0 22 ------- null}
- -t 0.382499999999999 -s 1 -d 2 -p cbr -e 210 -c 2 -i 22 -a 2 -x {1.0 5.0 22 ------- null}
h -t 0.382499999999999 -s 1 -d 2 -p cbr -e 210 -c 2 -i 22 -a 2 -x {1.0 5.0 -1 ------- null}
- -t 0.38364 -s 2 -d 3 -p cbr -e 210 -c 2 -i 13 -a 2 -x {1.0 5.0 13 ------- null}
h -t 0.38364 -s 2 -d 3 -p cbr -e 210 -c 2 -i 13 -a 2 -x {1.0 5.0 -1 ------- null}
r -t 0.38584 -s 1 -d 2 -p cbr -e 210 -c 2 -i 20 -a 2 -x {1.0 5.0 20 ------- null}
+ -t 0.38584 -s 2 -d 3 -p cbr -e 210 -c 2 -i 20 -a 2 -x {1.0 5.0 20 ------- null}
+ -t 0.386249999999999 -s 1 -d 2 -p cbr -e 210 -c 2 -i 23 -a 2 -x {1.0 5.0 23 ------- null}
- -t 0.386249999999999 -s 1 -d 2 -p cbr -e 210 -c 2 -i 23 -a 2 -x {1.0 5.0 23 ------- null}
h -t 0.386249999999999 -s 1 -d 2 -p cbr -e 210 -c 2 -i 23 -a 2 -x {1.0 5.0 -1 ------- null}
- -t 0.38924 -s 2 -d 3 -p cbr -e 210 -c 2 -i 14 -a 2 -x {1.0 5.0 14 ------- null}
h -t 0.38924 -s 2 -d 3 -p cbr -e 210 -c 2 -i 14 -a 2 -x {1.0 5.0 -1 ------- null}
r -t 0.389589999999999 -s 1 -d 2 -p cbr -e 210 -c 2 -i 21 -a 2 -x {1.0 5.0 21 ------- null}
+ -t 0.389589999999999 -s 2 -d 3 -p cbr -e 210 -c 2 -i 21 -a 2 -x {1.0 5.0 21 ------- null}
+ -t 0.389999999999999 -s 1 -d 2 -p cbr -e 210 -c 2 -i 24 -a 2 -x {1.0 5.0 24 ------- null}
- -t 0.389999999999999 -s 1 -d 2 -p cbr -e 210 -c 2 -i 24 -a 2 -x {1.0 5.0 24 ------- null}
h -t 0.389999999999999 -s 1 -d 2 -p cbr -e 210 -c 2 -i 24 -a 2 -x {1.0 5.0 -1 ------- null}
r -t 0.393339999999999 -s 1 -d 2 -p cbr -e 210 -c 2 -i 22 -a 2 -x {1.0 5.0 22 ------- null}
+ -t 0.393339999999999 -s 2 -d 3 -p cbr -e 210 -c 2 -i 22 -a 2 -x {1.0 5.0 22 ------- null}
+ -t 0.393749999999999 -s 1 -d 2 -p cbr -e 210 -c 2 -i 25 -a 2 -x {1.0 5.0 25 ------- null}
- -t 0.393749999999999 -s 1 -d 2 -p cbr -e 210 -c 2 -i 25 -a 2 -x {1.0 5.0 25 ------- null}
h -t 0.393749999999999 -s 1 -d 2 -p cbr -e 210 -c 2 -i 25 -a 2 -x {1.0 5.0 -1 ------- null}
- -t 0.39484 -s 2 -d 3 -p cbr -e 210 -c 2 -i 15 -a 2 -x {1.0 5.0 15 ------- null}
h -t 0.39484 -s 2 -d 3 -p cbr -e 210 -c 2 -i 15 -a 2 -x {1.0 5.0 -1 ------- null}
r -t 0.397089999999999 -s 1 -d 2 -p cbr -e 210 -c 2 -i 23 -a 2 -x {1.0 5.0 23 ------- null}
+ -t 0.397089999999999 -s 2 -d 3 -p cbr -e 210 -c 2 -i 23 -a 2 -x {1.0 5.0 23 ------- null}
+ -t 0.397499999999999 -s 1 -d 2 -p cbr -e 210 -c 2 -i 26 -a 2 -x {1.0 5.0 26 ------- null}
- -t 0.397499999999999 -s 1 -d 2 -p cbr -e 210 -c 2 -i 26 -a 2 -x {1.0 5.0 26 ------- null}
h -t 0.397499999999999 -s 1 -d 2 -p cbr -e 210 -c 2 -i 26 -a 2 -x {1.0 5.0 -1 ------- null}
- -t 0.40044 -s 2 -d 3 -p cbr -e 210 -c 2 -i 16 -a 2 -x {1.0 5.0 16 ------- null}
h -t 0.40044 -s 2 -d 3 -p cbr -e 210 -c 2 -i 16 -a 2 -x {1.0 5.0 -1 ------- null}
r -t 0.400839999999999 -s 1 -d 2 -p cbr -e 210 -c 2 -i 24 -a 2 -x {1.0 5.0 24 ------- null}
+ -t 0.400839999999999 -s 2 -d 3 -p cbr -e 210 -c 2 -i 24 -a 2 -x {1.0 5.0 24 ------- null}
+ -t 0.401249999999999 -s 1 -d 2 -p cbr -e 210 -c 2 -i 27 -a 2 -x {1.0 5.0 27 ------- null}
- -t 0.401249999999999 -s 1 -d 2 -p cbr -e 210 -c 2 -i 27 -a 2 -x {1.0 5.0 27 ------- null}
h -t 0.401249999999999 -s 1 -d 2 -p cbr -e 210 -c 2 -i 27 -a 2 -x {1.0 5.0 -1 ------- null}
r -t 0.404589999999999 -s 1 -d 2 -p cbr -e 210 -c 2 -i 25 -a 2 -x {1.0 5.0 25 ------- null}
+ -t 0.404589999999999 -s 2 -d 3 -p cbr -e 210 -c 2 -i 25 -a 2 -x {1.0 5.0 25 ------- null}
+ -t 0.404999999999999 -s 1 -d 2 -p cbr -e 210 -c 2 -i 28 -a 2 -x {1.0 5.0 28 ------- null}
- -t 0.404999999999999 -s 1 -d 2 -p cbr -e 210 -c 2 -i 28 -a 2 -x {1.0 5.0 28 ------- null}
h -t 0.404999999999999 -s 1 -d 2 -p cbr -e 210 -c 2 -i 28 -a 2 -x {1.0 5.0 -1 ------- null}
- -t 0.40604 -s 2 -d 3 -p cbr -e 210 -c 2 -i 17 -a 2 -x {1.0 5.0 17 ------- null}
h -t 0.40604 -s 2 -d 3 -p cbr -e 210 -c 2 -i 17 -a 2 -x {1.0 5.0 -1 ------- null}
r -t 0.408339999999999 -s 1 -d 2 -p cbr -e 210 -c 2 -i 26 -a 2 -x {1.0 5.0 26 ------- null}
+ -t 0.408339999999999 -s 2 -d 3 -p cbr -e 210 -c 2 -i 26 -a 2 -x {1.0 5.0 26 ------- null}
+ -t 0.408749999999999 -s 1 -d 2 -p cbr -e 210 -c 2 -i 29 -a 2 -x {1.0 5.0 29 ------- null}
- -t 0.408749999999999 -s 1 -d 2 -p cbr -e 210 -c 2 -i 29 -a 2 -x {1.0 5.0 29 ------- null}
h -t 0.408749999999999 -s 1 -d 2 -p cbr -e 210 -c 2 -i 29 -a 2 -x {1.0 5.0 -1 ------- null}
- -t 0.41164 -s 2 -d 3 -p cbr -e 210 -c 2 -i 18 -a 2 -x {1.0 5.0 18 ------- null}
h -t 0.41164 -s 2 -d 3 -p cbr -e 210 -c 2 -i 18 -a 2 -x {1.0 5.0 -1 ------- null}
r -t 0.412089999999999 -s 1 -d 2 -p cbr -e 210 -c 2 -i 27 -a 2 -x {1.0 5.0 27 ------- null}
+ -t 0.412089999999999 -s 2 -d 3 -p cbr -e 210 -c 2 -i 27 -a 2 -x {1.0 5.0 27 ------- null}
+ -t 0.412499999999999 -s 1 -d 2 -p cbr -e 210 -c 2 -i 30 -a 2 -x {1.0 5.0 30 ------- null}
- -t 0.412499999999999 -s 1 -d 2 -p cbr -e 210 -c 2 -i 30 -a 2 -x {1.0 5.0 30 ------- null}
h -t 0.412499999999999 -s 1 -d 2 -p cbr -e 210 -c 2 -i 30 -a 2 -x {1.0 5.0 -1 ------- null}
r -t 0.415839999999999 -s 1 -d 2 -p cbr -e 210 -c 2 -i 28 -a 2 -x {1.0 5.0 28 ------- null}
+ -t 0.415839999999999 -s 2 -d 3 -p cbr -e 210 -c 2 -i 28 -a 2 -x {1.0 5.0 28 ------- null}
+ -t 0.416249999999999 -s 1 -d 2 -p cbr -e 210 -c 2 -i 31 -a 2 -x {1.0 5.0 31 ------- null}
- -t 0.416249999999999 -s 1 -d 2 -p cbr -e 210 -c 2 -i 31 -a 2 -x {1.0 5.0 31 ------- null}
h -t 0.416249999999999 -s 1 -d 2 -p cbr -e 210 -c 2 -i 31 -a 2 -x {1.0 5.0 -1 ------- null}
r -t 0.41644 -s 2 -d 3 -p cbr -e 210 -c 2 -i 0 -a 2 -x {1.0 5.0 0 ------- null}
h -t 0.41644 -s 3 -d 6 -p cbr -e 210 -c 2 -i 0 -a 2 -x {1.0 5.0 0 ------- null}
- -t 0.41724 -s 2 -d 3 -p cbr -e 210 -c 2 -i 19 -a 2 -x {1.0 5.0 19 ------- null}
h -t 0.41724 -s 2 -d 3 -p cbr -e 210 -c 2 -i 19 -a 2 -x {1.0 5.0 -1 ------- null}
r -t 0.419589999999999 -s 1 -d 2 -p cbr -e 210 -c 2 -i 29 -a 2 -x {1.0 5.0 29 ------- null}
+ -t 0.419589999999999 -s 2 -d 3 -p cbr -e 210 -c 2 -i 29 -a 2 -x {1.0 5.0 29 ------- null}
+ -t 0.419999999999999 -s 1 -d 2 -p cbr -e 210 -c 2 -i 32 -a 2 -x {1.0 5.0 32 ------- null}
- -t 0.419999999999999 -s 1 -d 2 -p cbr -e 210 -c 2 -i 32 -a 2 -x {1.0 5.0 32 ------- null}
h -t 0.419999999999999 -s 1 -d 2 -p cbr -e 210 -c 2 -i 32 -a 2 -x {1.0 5.0 -1 ------- null}
r -t 0.42204 -s 2 -d 3 -p cbr -e 210 -c 2 -i 1 -a 2 -x {1.0 5.0 1 ------- null}
h -t 0.42204 -s 3 -d 6 -p cbr -e 210 -c 2 -i 1 -a 2 -x {1.0 5.0 1 ------- null}
- -t 0.42284 -s 2 -d 3 -p cbr -e 210 -c 2 -i 20 -a 2 -x {1.0 5.0 20 ------- null}
h -t 0.42284 -s 2 -d 3 -p cbr -e 210 -c 2 -i 20 -a 2 -x {1.0 5.0 -1 ------- null}
r -t 0.423339999999999 -s 1 -d 2 -p cbr -e 210 -c 2 -i 30 -a 2 -x {1.0 5.0 30 ------- null}
+ -t 0.423339999999999 -s 2 -d 3 -p cbr -e 210 -c 2 -i 30 -a 2 -x {1.0 5.0 30 ------- null}
+ -t 0.423749999999999 -s 1 -d 2 -p cbr -e 210 -c 2 -i 33 -a 2 -x {1.0 5.0 33 ------- null}
- -t 0.423749999999999 -s 1 -d 2 -p cbr -e 210 -c 2 -i 33 -a 2 -x {1.0 5.0 33 ------- null}
h -t 0.423749999999999 -s 1 -d 2 -p cbr -e 210 -c 2 -i 33 -a 2 -x {1.0 5.0 -1 ------- null}
r -t 0.427089999999999 -s 1 -d 2 -p cbr -e 210 -c 2 -i 31 -a 2 -x {1.0 5.0 31 ------- null}
+ -t 0.427089999999999 -s 2 -d 3 -p cbr -e 210 -c 2 -i 31 -a 2 -x {1.0 5.0 31 ------- null}
+ -t 0.427499999999999 -s 1 -d 2 -p cbr -e 210 -c 2 -i 34 -a 2 -x {1.0 5.0 34 ------- null}
- -t 0.427499999999999 -s 1 -d 2 -p cbr -e 210 -c 2 -i 34 -a 2 -x {1.0 5.0 34 ------- null}
h -t 0.427499999999999 -s 1 -d 2 -p cbr -e 210 -c 2 -i 34 -a 2 -x {1.0 5.0 -1 ------- null}
r -t 0.42764 -s 2 -d 3 -p cbr -e 210 -c 2 -i 2 -a 2 -x {1.0 5.0 2 ------- null}
h -t 0.42764 -s 3 -d 6 -p cbr -e 210 -c 2 -i 2 -a 2 -x {1.0 5.0 2 ------- null}
- -t 0.42844 -s 2 -d 3 -p cbr -e 210 -c 2 -i 21 -a 2 -x {1.0 5.0 21 ------- null}
h -t 0.42844 -s 2 -d 3 -p cbr -e 210 -c 2 -i 21 -a 2 -x {1.0 5.0 -1 ------- null}
r -t 0.430839999999999 -s 1 -d 2 -p cbr -e 210 -c 2 -i 32 -a 2 -x {1.0 5.0 32 ------- null}
+ -t 0.430839999999999 -s 2 -d 3 -p cbr -e 210 -c 2 -i 32 -a 2 -x {1.0 5.0 32 ------- null}
+ -t 0.431249999999999 -s 1 -d 2 -p cbr -e 210 -c 2 -i 35 -a 2 -x {1.0 5.0 35 ------- null}
- -t 0.431249999999999 -s 1 -d 2 -p cbr -e 210 -c 2 -i 35 -a 2 -x {1.0 5.0 35 ------- null}
h -t 0.431249999999999 -s 1 -d 2 -p cbr -e 210 -c 2 -i 35 -a 2 -x {1.0 5.0 -1 ------- null}
r -t 0.43324 -s 2 -d 3 -p cbr -e 210 -c 2 -i 3 -a 2 -x {1.0 5.0 3 ------- null}
h -t 0.43324 -s 3 -d 6 -p cbr -e 210 -c 2 -i 3 -a 2 -x {1.0 5.0 3 ------- null}
- -t 0.43404 -s 2 -d 3 -p cbr -e 210 -c 2 -i 22 -a 2 -x {1.0 5.0 22 ------- null}
h -t 0.43404 -s 2 -d 3 -p cbr -e 210 -c 2 -i 22 -a 2 -x {1.0 5.0 -1 ------- null}
r -t 0.434589999999999 -s 1 -d 2 -p cbr -e 210 -c 2 -i 33 -a 2 -x {1.0 5.0 33 ------- null}
+ -t 0.434589999999999 -s 2 -d 3 -p cbr -e 210 -c 2 -i 33 -a 2 -x {1.0 5.0 33 ------- null}
+ -t 0.434999999999999 -s 1 -d 2 -p cbr -e 210 -c 2 -i 36 -a 2 -x {1.0 5.0 36 ------- null}
- -t 0.434999999999999 -s 1 -d 2 -p cbr -e 210 -c 2 -i 36 -a 2 -x {1.0 5.0 36 ------- null}
h -t 0.434999999999999 -s 1 -d 2 -p cbr -e 210 -c 2 -i 36 -a 2 -x {1.0 5.0 -1 ------- null}
r -t 0.438339999999999 -s 1 -d 2 -p cbr -e 210 -c 2 -i 34 -a 2 -x {1.0 5.0 34 ------- null}
+ -t 0.438339999999999 -s 2 -d 3 -p cbr -e 210 -c 2 -i 34 -a 2 -x {1.0 5.0 34 ------- null}
+ -t 0.438749999999999 -s 1 -d 2 -p cbr -e 210 -c 2 -i 37 -a 2 -x {1.0 5.0 37 ------- null}
- -t 0.438749999999999 -s 1 -d 2 -p cbr -e 210 -c 2 -i 37 -a 2 -x {1.0 5.0 37 ------- null}
h -t 0.438749999999999 -s 1 -d 2 -p cbr -e 210 -c 2 -i 37 -a 2 -x {1.0 5.0 -1 ------- null}
r -t 0.43884 -s 2 -d 3 -p cbr -e 210 -c 2 -i 4 -a 2 -x {1.0 5.0 4 ------- null}
h -t 0.43884 -s 3 -d 6 -p cbr -e 210 -c 2 -i 4 -a 2 -x {1.0 5.0 4 ------- null}
- -t 0.43964 -s 2 -d 3 -p cbr -e 210 -c 2 -i 23 -a 2 -x {1.0 5.0 23 ------- null}
h -t 0.43964 -s 2 -d 3 -p cbr -e 210 -c 2 -i 23 -a 2 -x {1.0 5.0 -1 ------- null}
r -t 0.442089999999999 -s 1 -d 2 -p cbr -e 210 -c 2 -i 35 -a 2 -x {1.0 5.0 35 ------- null}
+ -t 0.442089999999999 -s 2 -d 3 -p cbr -e 210 -c 2 -i 35 -a 2 -x {1.0 5.0 35 ------- null}
+ -t 0.442499999999999 -s 1 -d 2 -p cbr -e 210 -c 2 -i 38 -a 2 -x {1.0 5.0 38 ------- null}
- -t 0.442499999999999 -s 1 -d 2 -p cbr -e 210 -c 2 -i 38 -a 2 -x {1.0 5.0 38 ------- null}
h -t 0.442499999999999 -s 1 -d 2 -p cbr -e 210 -c 2 -i 38 -a 2 -x {1.0 5.0 -1 ------- null}
r -t 0.44444 -s 2 -d 3 -p cbr -e 210 -c 2 -i 5 -a 2 -x {1.0 5.0 5 ------- null}
h -t 0.44444 -s 3 -d 6 -p cbr -e 210 -c 2 -i 5 -a 2 -x {1.0 5.0 5 ------- null}
- -t 0.44524 -s 2 -d 3 -p cbr -e 210 -c 2 -i 24 -a 2 -x {1.0 5.0 24 ------- null}
h -t 0.44524 -s 2 -d 3 -p cbr -e 210 -c 2 -i 24 -a 2 -x {1.0 5.0 -1 ------- null}
r -t 0.445839999999999 -s 1 -d 2 -p cbr -e 210 -c 2 -i 36 -a 2 -x {1.0 5.0 36 ------- null}
+ -t 0.445839999999999 -s 2 -d 3 -p cbr -e 210 -c 2 -i 36 -a 2 -x {1.0 5.0 36 ------- null}
+ -t 0.446249999999999 -s 1 -d 2 -p cbr -e 210 -c 2 -i 39 -a 2 -x {1.0 5.0 39 ------- null}
- -t 0.446249999999999 -s 1 -d 2 -p cbr -e 210 -c 2 -i 39 -a 2 -x {1.0 5.0 39 ------- null}
h -t 0.446249999999999 -s 1 -d 2 -p cbr -e 210 -c 2 -i 39 -a 2 -x {1.0 5.0 -1 ------- null}
r -t 0.449589999999999 -s 1 -d 2 -p cbr -e 210 -c 2 -i 37 -a 2 -x {1.0 5.0 37 ------- null}
+ -t 0.449589999999999 -s 2 -d 3 -p cbr -e 210 -c 2 -i 37 -a 2 -x {1.0 5.0 37 ------- null}
+ -t 0.449999999999999 -s 1 -d 2 -p cbr -e 210 -c 2 -i 40 -a 2 -x {1.0 5.0 40 ------- null}
- -t 0.449999999999999 -s 1 -d 2 -p cbr -e 210 -c 2 -i 40 -a 2 -x {1.0 5.0 40 ------- null}
h -t 0.449999999999999 -s 1 -d 2 -p cbr -e 210 -c 2 -i 40 -a 2 -x {1.0 5.0 -1 ------- null}
r -t 0.45004 -s 2 -d 3 -p cbr -e 210 -c 2 -i 6 -a 2 -x {1.0 5.0 6 ------- null}
h -t 0.45004 -s 3 -d 6 -p cbr -e 210 -c 2 -i 6 -a 2 -x {1.0 5.0 6 ------- null}
- -t 0.45084 -s 2 -d 3 -p cbr -e 210 -c 2 -i 25 -a 2 -x {1.0 5.0 25 ------- null}
h -t 0.45084 -s 2 -d 3 -p cbr -e 210 -c 2 -i 25 -a 2 -x {1.0 5.0 -1 ------- null}
r -t 0.453339999999999 -s 1 -d 2 -p cbr -e 210 -c 2 -i 38 -a 2 -x {1.0 5.0 38 ------- null}
+ -t 0.453339999999999 -s 2 -d 3 -p cbr -e 210 -c 2 -i 38 -a 2 -x {1.0 5.0 38 ------- null}
+ -t 0.453749999999999 -s 1 -d 2 -p cbr -e 210 -c 2 -i 41 -a 2 -x {1.0 5.0 41 ------- null}
- -t 0.453749999999999 -s 1 -d 2 -p cbr -e 210 -c 2 -i 41 -a 2 -x {1.0 5.0 41 ------- null}
h -t 0.453749999999999 -s 1 -d 2 -p cbr -e 210 -c 2 -i 41 -a 2 -x {1.0 5.0 -1 ------- null}
r -t 0.45564 -s 2 -d 3 -p cbr -e 210 -c 2 -i 7 -a 2 -x {1.0 5.0 7 ------- null}
h -t 0.45564 -s 3 -d 6 -p cbr -e 210 -c 2 -i 7 -a 2 -x {1.0 5.0 7 ------- null}
- -t 0.45644 -s 2 -d 3 -p cbr -e 210 -c 2 -i 26 -a 2 -x {1.0 5.0 26 ------- null}
h -t 0.45644 -s 2 -d 3 -p cbr -e 210 -c 2 -i 26 -a 2 -x {1.0 5.0 -1 ------- null}
+ -t 0.45644 -s 3 -d 6 -p cbr -e 210 -c 2 -i 0 -a 2 -x {1.0 5.0 0 ------- null}
- -t 0.45644 -s 3 -d 6 -p cbr -e 210 -c 2 -i 0 -a 2 -x {1.0 5.0 0 ------- null}
h -t 0.45644 -s 3 -d 6 -p cbr -e 210 -c 2 -i 0 -a 2 -x {1.0 5.0 -1 ------- null}
d -t 0.456444 -s 4 -d 6 -p cbr -e 210 -c 2 -i 0 -a 2 -x {1.0 5.0 0 ------- null}
r -t 0.457089999999999 -s 1 -d 2 -p cbr -e 210 -c 2 -i 39 -a 2 -x {1.0 5.0 39 ------- null}
+ -t 0.457089999999999 -s 2 -d 3 -p cbr -e 210 -c 2 -i 39 -a 2 -x {1.0 5.0 39 ------- null}
+ -t 0.457499999999999 -s 1 -d 2 -p cbr -e 210 -c 2 -i 42 -a 2 -x {1.0 5.0 42 ------- null}
- -t 0.457499999999999 -s 1 -d 2 -p cbr -e 210 -c 2 -i 42 -a 2 -x {1.0 5.0 42 ------- null}
h -t 0.457499999999999 -s 1 -d 2 -p cbr -e 210 -c 2 -i 42 -a 2 -x {1.0 5.0 -1 ------- null}
r -t 0.460839999999999 -s 1 -d 2 -p cbr -e 210 -c 2 -i 40 -a 2 -x {1.0 5.0 40 ------- null}
+ -t 0.460839999999999 -s 2 -d 3 -p cbr -e 210 -c 2 -i 40 -a 2 -x {1.0 5.0 40 ------- null}
r -t 0.46124 -s 2 -d 3 -p cbr -e 210 -c 2 -i 8 -a 2 -x {1.0 5.0 8 ------- null}
h -t 0.46124 -s 3 -d 6 -p cbr -e 210 -c 2 -i 8 -a 2 -x {1.0 5.0 8 ------- null}
+ -t 0.461249999999999 -s 1 -d 2 -p cbr -e 210 -c 2 -i 43 -a 2 -x {1.0 5.0 43 ------- null}
- -t 0.461249999999999 -s 1 -d 2 -p cbr -e 210 -c 2 -i 43 -a 2 -x {1.0 5.0 43 ------- null}
h -t 0.461249999999999 -s 1 -d 2 -p cbr -e 210 -c 2 -i 43 -a 2 -x {1.0 5.0 -1 ------- null}
- -t 0.46204 -s 2 -d 3 -p cbr -e 210 -c 2 -i 27 -a 2 -x {1.0 5.0 27 ------- null}
h -t 0.46204 -s 2 -d 3 -p cbr -e 210 -c 2 -i 27 -a 2 -x {1.0 5.0 -1 ------- null}
+ -t 0.46204 -s 3 -d 6 -p cbr -e 210 -c 2 -i 1 -a 2 -x {1.0 5.0 1 ------- null}
- -t 0.46204 -s 3 -d 6 -p cbr -e 210 -c 2 -i 1 -a 2 -x {1.0 5.0 1 ------- null}
h -t 0.46204 -s 3 -d 6 -p cbr -e 210 -c 2 -i 1 -a 2 -x {1.0 5.0 -1 ------- null}
d -t 0.462044 -s 4 -d 6 -p cbr -e 210 -c 2 -i 1 -a 2 -x {1.0 5.0 1 ------- null}
r -t 0.464589999999999 -s 1 -d 2 -p cbr -e 210 -c 2 -i 41 -a 2 -x {1.0 5.0 41 ------- null}
+ -t 0.464589999999999 -s 2 -d 3 -p cbr -e 210 -c 2 -i 41 -a 2 -x {1.0 5.0 41 ------- null}
+ -t 0.464999999999999 -s 1 -d 2 -p cbr -e 210 -c 2 -i 44 -a 2 -x {1.0 5.0 44 ------- null}
- -t 0.464999999999999 -s 1 -d 2 -p cbr -e 210 -c 2 -i 44 -a 2 -x {1.0 5.0 44 ------- null}
h -t 0.464999999999999 -s 1 -d 2 -p cbr -e 210 -c 2 -i 44 -a 2 -x {1.0 5.0 -1 ------- null}
r -t 0.46684 -s 2 -d 3 -p cbr -e 210 -c 2 -i 9 -a 2 -x {1.0 5.0 9 ------- null}
h -t 0.46684 -s 3 -d 6 -p cbr -e 210 -c 2 -i 9 -a 2 -x {1.0 5.0 9 ------- null}
- -t 0.46764 -s 2 -d 3 -p cbr -e 210 -c 2 -i 28 -a 2 -x {1.0 5.0 28 ------- null}
h -t 0.46764 -s 2 -d 3 -p cbr -e 210 -c 2 -i 28 -a 2 -x {1.0 5.0 -1 ------- null}
+ -t 0.46764 -s 3 -d 6 -p cbr -e 210 -c 2 -i 2 -a 2 -x {1.0 5.0 2 ------- null}
- -t 0.46764 -s 3 -d 6 -p cbr -e 210 -c 2 -i 2 -a 2 -x {1.0 5.0 2 ------- null}
h -t 0.46764 -s 3 -d 6 -p cbr -e 210 -c 2 -i 2 -a 2 -x {1.0 5.0 -1 ------- null}
d -t 0.467644 -s 4 -d 6 -p cbr -e 210 -c 2 -i 2 -a 2 -x {1.0 5.0 2 ------- null}
r -t 0.468339999999999 -s 1 -d 2 -p cbr -e 210 -c 2 -i 42 -a 2 -x {1.0 5.0 42 ------- null}
+ -t 0.468339999999999 -s 2 -d 3 -p cbr -e 210 -c 2 -i 42 -a 2 -x {1.0 5.0 42 ------- null}
+ -t 0.468749999999999 -s 1 -d 2 -p cbr -e 210 -c 2 -i 45 -a 2 -x {1.0 5.0 45 ------- null}
- -t 0.468749999999999 -s 1 -d 2 -p cbr -e 210 -c 2 -i 45 -a 2 -x {1.0 5.0 45 ------- null}
h -t 0.468749999999999 -s 1 -d 2 -p cbr -e 210 -c 2 -i 45 -a 2 -x {1.0 5.0 -1 ------- null}
r -t 0.472089999999999 -s 1 -d 2 -p cbr -e 210 -c 2 -i 43 -a 2 -x {1.0 5.0 43 ------- null}
+ -t 0.472089999999999 -s 2 -d 3 -p cbr -e 210 -c 2 -i 43 -a 2 -x {1.0 5.0 43 ------- null}
r -t 0.47244 -s 2 -d 3 -p cbr -e 210 -c 2 -i 10 -a 2 -x {1.0 5.0 10 ------- null}
h -t 0.47244 -s 3 -d 6 -p cbr -e 210 -c 2 -i 10 -a 2 -x {1.0 5.0 10 ------- null}
+ -t 0.472499999999999 -s 1 -d 2 -p cbr -e 210 -c 2 -i 46 -a 2 -x {1.0 5.0 46 ------- null}
- -t 0.472499999999999 -s 1 -d 2 -p cbr -e 210 -c 2 -i 46 -a 2 -x {1.0 5.0 46 ------- null}
h -t 0.472499999999999 -s 1 -d 2 -p cbr -e 210 -c 2 -i 46 -a 2 -x {1.0 5.0 -1 ------- null}
- -t 0.47324 -s 2 -d 3 -p cbr -e 210 -c 2 -i 29 -a 2 -x {1.0 5.0 29 ------- null}
h -t 0.47324 -s 2 -d 3 -p cbr -e 210 -c 2 -i 29 -a 2 -x {1.0 5.0 -1 ------- null}
+ -t 0.47324 -s 3 -d 6 -p cbr -e 210 -c 2 -i 3 -a 2 -x {1.0 5.0 3 ------- null}
- -t 0.47324 -s 3 -d 6 -p cbr -e 210 -c 2 -i 3 -a 2 -x {1.0 5.0 3 ------- null}
h -t 0.47324 -s 3 -d 6 -p cbr -e 210 -c 2 -i 3 -a 2 -x {1.0 5.0 -1 ------- null}
d -t 0.473244 -s 4 -d 6 -p cbr -e 210 -c 2 -i 3 -a 2 -x {1.0 5.0 3 ------- null}
r -t 0.475839999999999 -s 1 -d 2 -p cbr -e 210 -c 2 -i 44 -a 2 -x {1.0 5.0 44 ------- null}
+ -t 0.475839999999999 -s 2 -d 3 -p cbr -e 210 -c 2 -i 44 -a 2 -x {1.0 5.0 44 ------- null}
+ -t 0.476249999999999 -s 1 -d 2 -p cbr -e 210 -c 2 -i 47 -a 2 -x {1.0 5.0 47 ------- null}
- -t 0.476249999999999 -s 1 -d 2 -p cbr -e 210 -c 2 -i 47 -a 2 -x {1.0 5.0 47 ------- null}
h -t 0.476249999999999 -s 1 -d 2 -p cbr -e 210 -c 2 -i 47 -a 2 -x {1.0 5.0 -1 ------- null}
r -t 0.47804 -s 2 -d 3 -p cbr -e 210 -c 2 -i 11 -a 2 -x {1.0 5.0 11 ------- null}
h -t 0.47804 -s 3 -d 6 -p cbr -e 210 -c 2 -i 11 -a 2 -x {1.0 5.0 11 ------- null}
- -t 0.47884 -s 2 -d 3 -p cbr -e 210 -c 2 -i 30 -a 2 -x {1.0 5.0 30 ------- null}
h -t 0.47884 -s 2 -d 3 -p cbr -e 210 -c 2 -i 30 -a 2 -x {1.0 5.0 -1 ------- null}
+ -t 0.47884 -s 3 -d 6 -p cbr -e 210 -c 2 -i 4 -a 2 -x {1.0 5.0 4 ------- null}
- -t 0.47884 -s 3 -d 6 -p cbr -e 210 -c 2 -i 4 -a 2 -x {1.0 5.0 4 ------- null}
h -t 0.47884 -s 3 -d 6 -p cbr -e 210 -c 2 -i 4 -a 2 -x {1.0 5.0 -1 ------- null}
d -t 0.478844 -s 4 -d 6 -p cbr -e 210 -c 2 -i 4 -a 2 -x {1.0 5.0 4 ------- null}
r -t 0.479589999999999 -s 1 -d 2 -p cbr -e 210 -c 2 -i 45 -a 2 -x {1.0 5.0 45 ------- null}
+ -t 0.479589999999999 -s 2 -d 3 -p cbr -e 210 -c 2 -i 45 -a 2 -x {1.0 5.0 45 ------- null}