+ 0.3 1 2 cbr 210 ------- 2 1.0 5.0 0 0
- 0.3 1 2 cbr 210 ------- 2 1.0 5.0 0 0
+ 0.30375 1 2 cbr 210 ------- 2 1.0 5.0 1 1
- 0.30375 1 2 cbr 210 ------- 2 1.0 5.0 1 1
+ 0.3075 1 2 cbr 210 ------- 2 1.0 5.0 2 2
- 0.3075 1 2 cbr 210 ------- 2 1.0 5.0 2 2
r 0.31084 1 2 cbr 210 ------- 2 1.0 5.0 0 0
+ 0.31084 2 3 cbr 210 ------- 2 1.0 5.0 0 0
- 0.31084 2 3 cbr 210 ------- 2 1.0 5.0 0 0
+ 0.31125 1 2 cbr 210 ------- 2 1.0 5.0 3 3
- 0.31125 1 2 cbr 210 ------- 2 1.0 5.0 3 3
r 0.31459 1 2 cbr 210 ------- 2 1.0 5.0 1 1
+ 0.31459 2 3 cbr 210 ------- 2 1.0 5.0 1 1
+ 0.315 1 2 cbr 210 ------- 2 1.0 5.0 4 4
- 0.315 1 2 cbr 210 ------- 2 1.0 5.0 4 4
- 0.31644 2 3 cbr 210 ------- 2 1.0 5.0 1 1
r 0.31834 1 2 cbr 210 ------- 2 1.0 5.0 2 2
+ 0.31834 2 3 cbr 210 ------- 2 1.0 5.0 2 2
+ 0.31875 1 2 cbr 210 ------- 2 1.0 5.0 5 5
- 0.31875 1 2 cbr 210 ------- 2 1.0 5.0 5 5
- 0.32204 2 3 cbr 210 ------- 2 1.0 5.0 2 2
r 0.32209 1 2 cbr 210 ------- 2 1.0 5.0 3 3
+ 0.32209 2 3 cbr 210 ------- 2 1.0 5.0 3 3
+ 0.3225 1 2 cbr 210 ------- 2 1.0 5.0 6 6
- 0.3225 1 2 cbr 210 ------- 2 1.0 5.0 6 6
r 0.32584 1 2 cbr 210 ------- 2 1.0 5.0 4 4
+ 0.32584 2 3 cbr 210 ------- 2 1.0 5.0 4 4
+ 0.32625 1 2 cbr 210 ------- 2 1.0 5.0 7 7
- 0.32625 1 2 cbr 210 ------- 2 1.0 5.0 7 7
- 0.32764 2 3 cbr 210 ------- 2 1.0 5.0 3 3
r 0.32959 1 2 cbr 210 ------- 2 1.0 5.0 5 5
+ 0.32959 2 3 cbr 210 ------- 2 1.0 5.0 5 5
+ 0.33 1 2 cbr 210 ------- 2 1.0 5.0 8 8
- 0.33 1 2 cbr 210 ------- 2 1.0 5.0 8 8
- 0.33324 2 3 cbr 210 ------- 2 1.0 5.0 4 4
r 0.33334 1 2 cbr 210 ------- 2 1.0 5.0 6 6
+ 0.33334 2 3 cbr 210 ------- 2 1.0 5.0 6 6
+ 0.33375 1 2 cbr 210 ------- 2 1.0 5.0 9 9
- 0.33375 1 2 cbr 210 ------- 2 1.0 5.0 9 9
r 0.33709 1 2 cbr 210 ------- 2 1.0 5.0 7 7
+ 0.33709 2 3 cbr 210 ------- 2 1.0 5.0 7 7
+ 0.3375 1 2 cbr 210 ------- 2 1.0 5.0 10 10
- 0.3375 1 2 cbr 210 ------- 2 1.0 5.0 10 10
- 0.33884 2 3 cbr 210 ------- 2 1.0 5.0 5 5
r 0.34084 1 2 cbr 210 ------- 2 1.0 5.0 8 8
+ 0.34084 2 3 cbr 210 ------- 2 1.0 5.0 8 8
+ 0.34125 1 2 cbr 210 ------- 2 1.0 5.0 11 11
- 0.34125 1 2 cbr 210 ------- 2 1.0 5.0 11 11
- 0.34444 2 3 cbr 210 ------- 2 1.0 5.0 6 6
r 0.34459 1 2 cbr 210 ------- 2 1.0 5.0 9 9
+ 0.34459 2 3 cbr 210 ------- 2 1.0 5.0 9 9
+ 0.345 1 2 cbr 210 ------- 2 1.0 5.0 12 12
- 0.345 1 2 cbr 210 ------- 2 1.0 5.0 12 12
r 0.34834 1 2 cbr 210 ------- 2 1.0 5.0 10 10
+ 0.34834 2 3 cbr 210 ------- 2 1.0 5.0 10 10
+ 0.34875 1 2 cbr 210 ------- 2 1.0 5.0 13 13
- 0.34875 1 2 cbr 210 ------- 2 1.0 5.0 13 13
- 0.35004 2 3 cbr 210 ------- 2 1.0 5.0 7 7
r 0.35209 1 2 cbr 210 ------- 2 1.0 5.0 11 11
+ 0.35209 2 3 cbr 210 ------- 2 1.0 5.0 11 11
+ 0.3525 1 2 cbr 210 ------- 2 1.0 5.0 14 14
- 0.3525 1 2 cbr 210 ------- 2 1.0 5.0 14 14
- 0.35564 2 3 cbr 210 ------- 2 1.0 5.0 8 8
r 0.35584 1 2 cbr 210 ------- 2 1.0 5.0 12 12
+ 0.35584 2 3 cbr 210 ------- 2 1.0 5.0 12 12
+ 0.35625 1 2 cbr 210 ------- 2 1.0 5.0 15 15
- 0.35625 1 2 cbr 210 ------- 2 1.0 5.0 15 15
r 0.35959 1 2 cbr 210 ------- 2 1.0 5.0 13 13
+ 0.35959 2 3 cbr 210 ------- 2 1.0 5.0 13 13
+ 0.36 1 2 cbr 210 ------- 2 1.0 5.0 16 16
- 0.36 1 2 cbr 210 ------- 2 1.0 5.0 16 16
- 0.36124 2 3 cbr 210 ------- 2 1.0 5.0 9 9
r 0.36334 1 2 cbr 210 ------- 2 1.0 5.0 14 14
+ 0.36334 2 3 cbr 210 ------- 2 1.0 5.0 14 14
+ 0.36375 1 2 cbr 210 ------- 2 1.0 5.0 17 17
- 0.36375 1 2 cbr 210 ------- 2 1.0 5.0 17 17
- 0.36684 2 3 cbr 210 ------- 2 1.0 5.0 10 10
r 0.36709 1 2 cbr 210 ------- 2 1.0 5.0 15 15
+ 0.36709 2 3 cbr 210 ------- 2 1.0 5.0 15 15
+ 0.3675 1 2 cbr 210 ------- 2 1.0 5.0 18 18
- 0.3675 1 2 cbr 210 ------- 2 1.0 5.0 18 18
r 0.37084 1 2 cbr 210 ------- 2 1.0 5.0 16 16
+ 0.37084 2 3 cbr 210 ------- 2 1.0 5.0 16 16
+ 0.37125 1 2 cbr 210 ------- 2 1.0 5.0 19 19
- 0.37125 1 2 cbr 210 ------- 2 1.0 5.0 19 19
- 0.37244 2 3 cbr 210 ------- 2 1.0 5.0 11 11
r 0.37459 1 2 cbr 210 ------- 2 1.0 5.0 17 17
+ 0.37459 2 3 cbr 210 ------- 2 1.0 5.0 17 17
+ 0.375 1 2 cbr 210 ------- 2 1.0 5.0 20 20
- 0.375 1 2 cbr 210 ------- 2 1.0 5.0 20 20
- 0.37804 2 3 cbr 210 ------- 2 1.0 5.0 12 12
r 0.37834 1 2 cbr 210 ------- 2 1.0 5.0 18 18
+ 0.37834 2 3 cbr 210 ------- 2 1.0 5.0 18 18
+ 0.37875 1 2 cbr 210 ------- 2 1.0 5.0 21 21
- 0.37875 1 2 cbr 210 ------- 2 1.0 5.0 21 21
r 0.38209 1 2 cbr 210 ------- 2 1.0 5.0 19 19
+ 0.38209 2 3 cbr 210 ------- 2 1.0 5.0 19 19
+ 0.3825 1 2 cbr 210 ------- 2 1.0 5.0 22 22
- 0.3825 1 2 cbr 210 ------- 2 1.0 5.0 22 22
- 0.38364 2 3 cbr 210 ------- 2 1.0 5.0 13 13
r 0.38584 1 2 cbr 210 ------- 2 1.0 5.0 20 20
+ 0.38584 2 3 cbr 210 ------- 2 1.0 5.0 20 20
+ 0.38625 1 2 cbr 210 ------- 2 1.0 5.0 23 23
- 0.38625 1 2 cbr 210 ------- 2 1.0 5.0 23 23
- 0.38924 2 3 cbr 210 ------- 2 1.0 5.0 14 14
r 0.38959 1 2 cbr 210 ------- 2 1.0 5.0 21 21
+ 0.38959 2 3 cbr 210 ------- 2 1.0 5.0 21 21
+ 0.39 1 2 cbr 210 ------- 2 1.0 5.0 24 24
- 0.39 1 2 cbr 210 ------- 2 1.0 5.0 24 24
r 0.39334 1 2 cbr 210 ------- 2 1.0 5.0 22 22
+ 0.39334 2 3 cbr 210 ------- 2 1.0 5.0 22 22
+ 0.39375 1 2 cbr 210 ------- 2 1.0 5.0 25 25
- 0.39375 1 2 cbr 210 ------- 2 1.0 5.0 25 25
- 0.39484 2 3 cbr 210 ------- 2 1.0 5.0 15 15
r 0.39709 1 2 cbr 210 ------- 2 1.0 5.0 23 23
+ 0.39709 2 3 cbr 210 ------- 2 1.0 5.0 23 23
+ 0.3975 1 2 cbr 210 ------- 2 1.0 5.0 26 26
- 0.3975 1 2 cbr 210 ------- 2 1.0 5.0 26 26
- 0.40044 2 3 cbr 210 ------- 2 1.0 5.0 16 16
r 0.40084 1 2 cbr 210 ------- 2 1.0 5.0 24 24
+ 0.40084 2 3 cbr 210 ------- 2 1.0 5.0 24 24
+ 0.40125 1 2 cbr 210 ------- 2 1.0 5.0 27 27
- 0.40125 1 2 cbr 210 ------- 2 1.0 5.0 27 27
r 0.40459 1 2 cbr 210 ------- 2 1.0 5.0 25 25
+ 0.40459 2 3 cbr 210 ------- 2 1.0 5.0 25 25
+ 0.405 1 2 cbr 210 ------- 2 1.0 5.0 28 28
- 0.405 1 2 cbr 210 ------- 2 1.0 5.0 28 28
- 0.40604 2 3 cbr 210 ------- 2 1.0 5.0 17 17
r 0.40834 1 2 cbr 210 ------- 2 1.0 5.0 26 26
+ 0.40834 2 3 cbr 210 ------- 2 1.0 5.0 26 26
+ 0.40875 1 2 cbr 210 ------- 2 1.0 5.0 29 29
- 0.40875 1 2 cbr 210 ------- 2 1.0 5.0 29 29
- 0.41164 2 3 cbr 210 ------- 2 1.0 5.0 18 18
r 0.41209 1 2 cbr 210 ------- 2 1.0 5.0 27 27
+ 0.41209 2 3 cbr 210 ------- 2 1.0 5.0 27 27
+ 0.4125 1 2 cbr 210 ------- 2 1.0 5.0 30 30
- 0.4125 1 2 cbr 210 ------- 2 1.0 5.0 30 30
r 0.41584 1 2 cbr 210 ------- 2 1.0 5.0 28 28
+ 0.41584 2 3 cbr 210 ------- 2 1.0 5.0 28 28
+ 0.41625 1 2 cbr 210 ------- 2 1.0 5.0 31 31
- 0.41625 1 2 cbr 210 ------- 2 1.0 5.0 31 31
r 0.41644 2 3 cbr 210 ------- 2 1.0 5.0 0 0
h 0.41644 3 6 cbr 210 ------- 2 1.0 5.0 0 0
- 0.41724 2 3 cbr 210 ------- 2 1.0 5.0 19 19
r 0.41959 1 2 cbr 210 ------- 2 1.0 5.0 29 29
+ 0.41959 2 3 cbr 210 ------- 2 1.0 5.0 29 29
+ 0.42 1 2 cbr 210 ------- 2 1.0 5.0 32 32
- 0.42 1 2 cbr 210 ------- 2 1.0 5.0 32 32
r 0.42204 2 3 cbr 210 ------- 2 1.0 5.0 1 1
h 0.42204 3 6 cbr 210 ------- 2 1.0 5.0 1 1
- 0.42284 2 3 cbr 210 ------- 2 1.0 5.0 20 20
r 0.42334 1 2 cbr 210 ------- 2 1.0 5.0 30 30
+ 0.42334 2 3 cbr 210 ------- 2 1.0 5.0 30 30
+ 0.42375 1 2 cbr 210 ------- 2 1.0 5.0 33 33
- 0.42375 1 2 cbr 210 ------- 2 1.0 5.0 33 33
r 0.42709 1 2 cbr 210 ------- 2 1.0 5.0 31 31
+ 0.42709 2 3 cbr 210 ------- 2 1.0 5.0 31 31
+ 0.4275 1 2 cbr 210 ------- 2 1.0 5.0 34 34
- 0.4275 1 2 cbr 210 ------- 2 1.0 5.0 34 34
r 0.42764 2 3 cbr 210 ------- 2 1.0 5.0 2 2
h 0.42764 3 6 cbr 210 ------- 2 1.0 5.0 2 2
- 0.42844 2 3 cbr 210 ------- 2 1.0 5.0 21 21
r 0.43084 1 2 cbr 210 ------- 2 1.0 5.0 32 32
+ 0.43084 2 3 cbr 210 ------- 2 1.0 5.0 32 32
+ 0.43125 1 2 cbr 210 ------- 2 1.0 5.0 35 35
- 0.43125 1 2 cbr 210 ------- 2 1.0 5.0 35 35
r 0.43324 2 3 cbr 210 ------- 2 1.0 5.0 3 3
h 0.43324 3 6 cbr 210 ------- 2 1.0 5.0 3 3
- 0.43404 2 3 cbr 210 ------- 2 1.0 5.0 22 22
r 0.43459 1 2 cbr 210 ------- 2 1.0 5.0 33 33
+ 0.43459 2 3 cbr 210 ------- 2 1.0 5.0 33 33
+ 0.435 1 2 cbr 210 ------- 2 1.0 5.0 36 36
- 0.435 1 2 cbr 210 ------- 2 1.0 5.0 36 36
r 0.43834 1 2 cbr 210 ------- 2 1.0 5.0 34 34
+ 0.43834 2 3 cbr 210 ------- 2 1.0 5.0 34 34
+ 0.43875 1 2 cbr 210 ------- 2 1.0 5.0 37 37
- 0.43875 1 2 cbr 210 ------- 2 1.0 5.0 37 37
r 0.43884 2 3 cbr 210 ------- 2 1.0 5.0 4 4
h 0.43884 3 6 cbr 210 ------- 2 1.0 5.0 4 4
- 0.43964 2 3 cbr 210 ------- 2 1.0 5.0 23 23
r 0.44209 1 2 cbr 210 ------- 2 1.0 5.0 35 35
+ 0.44209 2 3 cbr 210 ------- 2 1.0 5.0 35 35
+ 0.4425 1 2 cbr 210 ------- 2 1.0 5.0 38 38
- 0.4425 1 2 cbr 210 ------- 2 1.0 5.0 38 38
r 0.44444 2 3 cbr 210 ------- 2 1.0 5.0 5 5
h 0.44444 3 6 cbr 210 ------- 2 1.0 5.0 5 5
- 0.44524 2 3 cbr 210 ------- 2 1.0 5.0 24 24
r 0.44584 1 2 cbr 210 ------- 2 1.0 5.0 36 36
+ 0.44584 2 3 cbr 210 ------- 2 1.0 5.0 36 36
+ 0.44625 1 2 cbr 210 ------- 2 1.0 5.0 39 39
- 0.44625 1 2 cbr 210 ------- 2 1.0 5.0 39 39
r 0.44959 1 2 cbr 210 ------- 2 1.0 5.0 37 37
+ 0.44959 2 3 cbr 210 ------- 2 1.0 5.0 37 37
+ 0.45 1 2 cbr 210 ------- 2 1.0 5.0 40 40
- 0.45 1 2 cbr 210 ------- 2 1.0 5.0 40 40
r 0.45004 2 3 cbr 210 ------- 2 1.0 5.0 6 6
h 0.45004 3 6 cbr 210 ------- 2 1.0 5.0 6 6
- 0.45084 2 3 cbr 210 ------- 2 1.0 5.0 25 25
r 0.45334 1 2 cbr 210 ------- 2 1.0 5.0 38 38
+ 0.45334 2 3 cbr 210 ------- 2 1.0 5.0 38 38
+ 0.45375 1 2 cbr 210 ------- 2 1.0 5.0 41 41
- 0.45375 1 2 cbr 210 ------- 2 1.0 5.0 41 41
r 0.45564 2 3 cbr 210 ------- 2 1.0 5.0 7 7
h 0.45564 3 6 cbr 210 ------- 2 1.0 5.0 7 7
- 0.45644 2 3 cbr 210 ------- 2 1.0 5.0 26 26
+ 0.45644 3 6 cbr 210 ------- 2 1.0 5.0 0 0
- 0.45644 3 6 cbr 210 ------- 2 1.0 5.0 0 0
d 0.456444 4 6 cbr 210 ------- 2 1.0 5.0 0 0
r 0.45709 1 2 cbr 210 ------- 2 1.0 5.0 39 39
+ 0.45709 2 3 cbr 210 ------- 2 1.0 5.0 39 39
+ 0.4575 1 2 cbr 210 ------- 2 1.0 5.0 42 42
- 0.4575 1 2 cbr 210 ------- 2 1.0 5.0 42 42
r 0.46084 1 2 cbr 210 ------- 2 1.0 5.0 40 40
+ 0.46084 2 3 cbr 210 ------- 2 1.0 5.0 40 40
r 0.46124 2 3 cbr 210 ------- 2 1.0 5.0 8 8
h 0.46124 3 6 cbr 210 ------- 2 1.0 5.0 8 8
+ 0.46125 1 2 cbr 210 ------- 2 1.0 5.0 43 43
- 0.46125 1 2 cbr 210 ------- 2 1.0 5.0 43 43
- 0.46204 2 3 cbr 210 ------- 2 1.0 5.0 27 27
+ 0.46204 3 6 cbr 210 ------- 2 1.0 5.0 1 1
- 0.46204 3 6 cbr 210 ------- 2 1.0 5.0 1 1
d 0.462044 4 6 cbr 210 ------- 2 1.0 5.0 1 1
r 0.46459 1 2 cbr 210 ------- 2 1.0 5.0 41 41
+ 0.46459 2 3 cbr 210 ------- 2 1.0 5.0 41 41
+ 0.465 1 2 cbr 210 ------- 2 1.0 5.0 44 44
- 0.465 1 2 cbr 210 ------- 2 1.0 5.0 44 44
r 0.46684 2 3 cbr 210 ------- 2 1.0 5.0 9 9
h 0.46684 3 6 cbr 210 ------- 2 1.0 5.0 9 9
- 0.46764 2 3 cbr 210 ------- 2 1.0 5.0 28 28
+ 0.46764 3 6 cbr 210 ------- 2 1.0 5.0 2 2
- 0.46764 3 6 cbr 210 ------- 2 1.0 5.0 2 2
d 0.467644 4 6 cbr 210 ------- 2 1.0 5.0 2 2
r 0.46834 1 2 cbr 210 ------- 2 1.0 5.0 42 42
+ 0.46834 2 3 cbr 210 ------- 2 1.0 5.0 42 42
+ 0.46875 1 2 cbr 210 ------- 2 1.0 5.0 45 45
- 0.46875 1 2 cbr 210 ------- 2 1.0 5.0 45 45
r 0.47209 1 2 cbr 210 ------- 2 1.0 5.0 43 43
+ 0.47209 2 3 cbr 210 ------- 2 1.0 5.0 43 43
r 0.47244 2 3 cbr 210 ------- 2 1.0 5.0 10 10
h 0.47244 3 6 cbr 210 ------- 2 1.0 5.0 10 10
+ 0.4725 1 2 cbr 210 ------- 2 1.0 5.0 46 46
- 0.4725 1 2 cbr 210 ------- 2 1.0 5.0 46 46
- 0.47324 2 3 cbr 210 ------- 2 1.0 5.0 29 29
+ 0.47324 3 6 cbr 210 ------- 2 1.0 5.0 3 3
- 0.47324 3 6 cbr 210 ------- 2 1.0 5.0 3 3
d 0.473244 4 6 cbr 210 ------- 2 1.0 5.0 3 3
r 0.47584 1 2 cbr 210 ------- 2 1.0 5.0 44 44
+ 0.47584 2 3 cbr 210 ------- 2 1.0 5.0 44 44
+ 0.47625 1 2 cbr 210 ------- 2 1.0 5.0 47 47
- 0.47625 1 2 cbr 210 ------- 2 1.0 5.0 47 47
r 0.47804 2 3 cbr 210 ------- 2 1.0 5.0 11 11
h 0.47804 3 6 cbr 210 ------- 2 1.0 5.0 11 11
- 0.47884 2 3 cbr 210 ------- 2 1.0 5.0 30 30
+ 0.47884 3 6 cbr 210 ------- 2 1.0 5.0 4 4
- 0.47884 3 6 cbr 210 ------- 2 1.0 5.0 4 4
d 0.478844 4 6 cbr 210 ------- 2 1.0 5.0 4 4
r 0.47959 1 2 cbr 210 ------- 2 1.0 5.0 45 45
+ 0.47959 2 3 cbr 210 ------- 2 1.0 5.0 45 45
+ 0.48 1 2 cbr 210 ------- 2 1.0 5.0 48 48
- 0.48 1 2 cbr 210 ------- 2 1.0 5.0 48 48
r 0.48334 1 2 cbr 210 ------- 2 1.0 5.0 46 46
+ 0.48334 2 3 cbr 210 ------- 2 1.0 5.0 46 46
r 0.48364 2 3 cbr 210 ------- 2 1.0 5.0 12 12
h 0.48364 3 6 cbr 210 ------- 2 1.0 5.0 12 12
+ 0.48375 1 2 cbr 210 ------- 2 1.0 5.0 49 49
- 0.48375 1 2 cbr 210 ------- 2 1.0 5.0 49 49
- 0.48444 2 3 cbr 210 ------- 2 1.0 5.0 31 31
+ 0.48444 3 6 cbr 210 ------- 2 1.0 5.0 5 5
- 0.48444 3 6 cbr 210 ------- 2 1.0 5.0 5 5
d 0.484444 4 6 cbr 210 ------- 2 1.0 5.0 5 5
r 0.48709 1 2 cbr 210 ------- 2 1.0 5.0 47 47
+ 0.48709 2 3 cbr 210 ------- 2 1.0 5.0 47 47
+ 0.4875 1 2 cbr 210 ------- 2 1.0 5.0 50 50
- 0.4875 1 2 cbr 210 ------- 2 1.0 5.0 50 50
r 0.48924 2 3 cbr 210 ------- 2 1.0 5.0 13 13
h 0.48924 3 6 cbr 210 ------- 2 1.0 5.0 13 13
- 0.49004 2 3 cbr 210 ------- 2 1.0 5.0 32 32
+ 0.49004 3 6 cbr 210 ------- 2 1.0 5.0 6 6
- 0.49004 3 6 cbr 210 ------- 2 1.0 5.0 6 6
d 0.490044 4 6 cbr 210 ------- 2 1.0 5.0 6 6
r 0.49084 1 2 cbr 210 ------- 2 1.0 5.0 48 48
+ 0.49084 2 3 cbr 210 ------- 2 1.0 5.0 48 48
+ 0.49125 1 2 cbr 210 ------- 2 1.0 5.0 51 51
- 0.49125 1 2 cbr 210 ------- 2 1.0 5.0 51 51
r 0.49459 1 2 cbr 210 ------- 2 1.0 5.0 49 49
+ 0.49459 2 3 cbr 210 ------- 2 1.0 5.0 49 49
r 0.49484 2 3 cbr 210 ------- 2 1.0 5.0 14 14
h 0.49484 3 6 cbr 210 ------- 2 1.0 5.0 14 14
+ 0.495 1 2 cbr 210 ------- 2 1.0 5.0 52 52
- 0.495 1 2 cbr 210 ------- 2 1.0 5.0 52 52
- 0.49564 2 3 cbr 210 ------- 2 1.0 5.0 33 33
+ 0.49564 3 6 cbr 210 ------- 2 1.0 5.0 7 7
- 0.49564 3 6 cbr 210 ------- 2 1.0 5.0 7 7
d 0.495644 4 6 cbr 210 ------- 2 1.0 5.0 7 7
r 0.496444 6 5 cbr 210 ------- 2 1.0 5.0 0 0
r 0.49834 1 2 cbr 210 ------- 2 1.0 5.0 50 50
+ 0.49834 2 3 cbr 210 ------- 2 1.0 5.0 50 50
+ 0.49875 1 2 cbr 210 ------- 2 1.0 5.0 53 53
- 0.49875 1 2 cbr 210 ------- 2 1.0 5.0 53 53
r 0.50044 2 3 cbr 210 ------- 2 1.0 5.0 15 15
h 0.50044 3 6 cbr 210 ------- 2 1.0 5.0 15 15
- 0.50124 2 3 cbr 210 ------- 2 1.0 5.0 34 34
+ 0.50124 3 6 cbr 210 ------- 2 1.0 5.0 8 8
- 0.50124 3 6 cbr 210 ------- 2 1.0 5.0 8 8
d 0.501244 4 6 cbr 210 ------- 2 1.0 5.0 8 8
r 0.502044 6 5 cbr 210 ------- 2 1.0 5.0 1 1
r 0.50209 1 2 cbr 210 ------- 2 1.0 5.0 51 51
+ 0.50209 2 3 cbr 210 ------- 2 1.0 5.0 51 51
+ 0.5025 1 2 cbr 210 ------- 2 1.0 5.0 54 54
- 0.5025 1 2 cbr 210 ------- 2 1.0 5.0 54 54
r 0.50584 1 2 cbr 210 ------- 2 1.0 5.0 52 52
+ 0.50584 2 3 cbr 210 ------- 2 1.0 5.0 52 52
r 0.50604 2 3 cbr 210 ------- 2 1.0 5.0 16 16
h 0.50604 3 6 cbr 210 ------- 2 1.0 5.0 16 16
+ 0.50625 1 2 cbr 210 ------- 2 1.0 5.0 55 55
- 0.50625 1 2 cbr 210 ------- 2 1.0 5.0 55 55
- 0.50684 2 3 cbr 210 ------- 2 1.0 5.0 35 35
+ 0.50684 3 6 cbr 210 ------- 2 1.0 5.0 9 9
- 0.50684 3 6 cbr 210 ------- 2 1.0 5.0 9 9
d 0.506844 4 6 cbr 210 ------- 2 1.0 5.0 9 9
r 0.507644 6 5 cbr 210 ------- 2 1.0 5.0 2 2
r 0.50959 1 2 cbr 210 ------- 2 1.0 5.0 53 53
+ 0.50959 2 3 cbr 210 ------- 2 1.0 5.0 53 53
+ 0.51 1 2 cbr 210 ------- 2 1.0 5.0 56 56
- 0.51 1 2 cbr 210 ------- 2 1.0 5.0 56 56
r 0.51164 2 3 cbr 210 ------- 2 1.0 5.0 17 17
h 0.51164 3 6 cbr 210 ------- 2 1.0 5.0 17 17
- 0.51244 2 3 cbr 210 ------- 2 1.0 5.0 36 36
+ 0.51244 3 6 cbr 210 ------- 2 1.0 5.0 10 10
- 0.51244 3 6 cbr 210 ------- 2 1.0 5.0 10 10
d 0.512444 4 6 cbr 210 ------- 2 1.0 5.0 10 10
r 0.513244 6 5 cbr 210 ------- 2 1.0 5.0 3 3
r 0.51334 1 2 cbr 210 ------- 2 1.0 5.0 54 54
+ 0.51334 2 3 cbr 210 ------- 2 1.0 5.0 54 54
+ 0.51375 1 2 cbr 210 ------- 2 1.0 5.0 57 57
- 0.51375 1 2 cbr 210 ------- 2 1.0 5.0 57 57
r 0.51709 1 2 cbr 210 ------- 2 1.0 5.0 55 55
+ 0.51709 2 3 cbr 210 ------- 2 1.0 5.0 55 55
r 0.51724 2 3 cbr 210 ------- 2 1.0 5.0 18 18
h 0.51724 3 6 cbr 210 ------- 2 1.0 5.0 18 18
+ 0.5175 1 2 cbr 210 ------- 2 1.0 5.0 58 58
- 0.5175 1 2 cbr 210 ------- 2 1.0 5.0 58 58
+ 0.51804 3 6 cbr 210 ------- 2 1.0 5.0 11 11
- 0.51804 3 6 cbr 210 ------- 2 1.0 5.0 11 11
- 0.51804 2 3 cbr 210 ------- 2 1.0 5.0 37 37
d 0.518044 4 6 cbr 210 ------- 2 1.0 5.0 11 11
r 0.518844 6 5 cbr 210 ------- 2 1.0 5.0 4 4
r 0.52084 1 2 cbr 210 ------- 2 1.0 5.0 56 56
+ 0.52084 2 3 cbr 210 ------- 2 1.0 5.0 56 56
+ 0.52125 1 2 cbr 210 ------- 2 1.0 5.0 59 59
- 0.52125 1 2 cbr 210 ------- 2 1.0 5.0 59 59
r 0.52284 2 3 cbr 210 ------- 2 1.0 5.0 19 19
h 0.52284 3 6 cbr 210 ------- 2 1.0 5.0 19 19
+ 0.52364 3 6 cbr 210 ------- 2 1.0 5.0 12 12
- 0.52364 3 6 cbr 210 ------- 2 1.0 5.0 12 12
- 0.52364 2 3 cbr 210 ------- 2 1.0 5.0 38 38
d 0.523644 4 6 cbr 210 ------- 2 1.0 5.0 12 12
r 0.524444 6 5 cbr 210 ------- 2 1.0 5.0 5 5
r 0.52459 1 2 cbr 210 ------- 2 1.0 5.0 57 57
+ 0.52459 2 3 cbr 210 ------- 2 1.0 5.0 57 57
+ 0.525 1 2 cbr 210 ------- 2 1.0 5.0 60 60
- 0.525 1 2 cbr 210 ------- 2 1.0 5.0 60 60
r 0.52834 1 2 cbr 210 ------- 2 1.0 5.0 58 58
+ 0.52834 2 3 cbr 210 ------- 2 1.0 5.0 58 58
r 0.52844 2 3 cbr 210 ------- 2 1.0 5.0 20 20
h 0.52844 3 6 cbr 210 ------- 2 1.0 5.0 20 20
+ 0.52875 1 2 cbr 210 ------- 2 1.0 5.0 61 61
- 0.52875 1 2 cbr 210 ------- 2 1.0 5.0 61 61
+ 0.52924 3 6 cbr 210 ------- 2 1.0 5.0 13 13
- 0.52924 3 6 cbr 210 ------- 2 1.0 5.0 13 13
- 0.52924 2 3 cbr 210 ------- 2 1.0 5.0 39 39
d 0.529244 4 6 cbr 210 ------- 2 1.0 5.0 13 13
r 0.530044 6 5 cbr 210 ------- 2 1.0 5.0 6 6
r 0.53209 1 2 cbr 210 ------- 2 1.0 5.0 59 59
+ 0.53209 2 3 cbr 210 ------- 2 1.0 5.0 59 59
+ 0.5325 1 2 cbr 210 ------- 2 1.0 5.0 62 62
- 0.5325 1 2 cbr 210 ------- 2 1.0 5.0 62 62
r 0.53404 2 3 cbr 210 ------- 2 1.0 5.0 21 21
h 0.53404 3 6 cbr 210 ------- 2 1.0 5.0 21 21
+ 0.53484 3 6 cbr 210 ------- 2 1.0 5.0 14 14
- 0.53484 3 6 cbr 210 ------- 2 1.0 5.0 14 14
- 0.53484 2 3 cbr 210 ------- 2 1.0 5.0 40 40
d 0.534844 4 6 cbr 210 ------- 2 1.0 5.0 14 14
r 0.535644 6 5 cbr 210 ------- 2 1.0 5.0 7 7
r 0.53584 1 2 cbr 210 ------- 2 1.0 5.0 60 60
+ 0.53584 2 3 cbr 210 ------- 2 1.0 5.0 60 60
+ 0.53625 1 2 cbr 210 ------- 2 1.0 5.0 63 63
- 0.53625 1 2 cbr 210 ------- 2 1.0 5.0 63 63
r 0.53959 1 2 cbr 210 ------- 2 1.0 5.0 61 61
+ 0.53959 2 3 cbr 210 ------- 2 1.0 5.0 61 61
r 0.53964 2 3 cbr 210 ------- 2 1.0 5.0 22 22
h 0.53964 3 6 cbr 210 ------- 2 1.0 5.0 22 22
+ 0.54 1 2 cbr 210 ------- 2 1.0 5.0 64 64
- 0.54 1 2 cbr 210 ------- 2 1.0 5.0 64 64
+ 0.54044 3 6 cbr 210 ------- 2 1.0 5.0 15 15
- 0.54044 3 6 cbr 210 ------- 2 1.0 5.0 15 15
- 0.54044 2 3 cbr 210 ------- 2 1.0 5.0 41 41
d 0.540444 4 6 cbr 210 ------- 2 1.0 5.0 15 15
r 0.541244 6 5 cbr 210 ------- 2 1.0 5.0 8 8
r 0.54334 1 2 cbr 210 ------- 2 1.0 5.0 62 62
+ 0.54334 2 3 cbr 210 ------- 2 1.0 5.0 62 62
+ 0.54375 1 2 cbr 210 ------- 2 1.0 5.0 65 65
- 0.54375 1 2 cbr 210 ------- 2 1.0 5.0 65 65
r 0.54524 2 3 cbr 210 ------- 2 1.0 5.0 23 23
h 0.54524 3 6 cbr 210 ------- 2 1.0 5.0 23 23
+ 0.54604 3 6 cbr 210 ------- 2 1.0 5.0 16 16
- 0.54604 3 6 cbr 210 ------- 2 1.0 5.0 16 16
- 0.54604 2 3 cbr 210 ------- 2 1.0 5.0 42 42
d 0.546044 4 6 cbr 210 ------- 2 1.0 5.0 16 16
r 0.546844 6 5 cbr 210 ------- 2 1.0 5.0 9 9
r 0.54709 1 2 cbr 210 ------- 2 1.0 5.0 63 63
+ 0.54709 2 3 cbr 210 ------- 2 1.0 5.0 63 63
+ 0.5475 1 2 cbr 210 ------- 2 1.0 5.0 66 66
- 0.5475 1 2 cbr 210 ------- 2 1.0 5.0 66 66
r 0.55084 1 2 cbr 210 ------- 2 1.0 5.0 64 64
+ 0.55084 2 3 cbr 210 ------- 2 1.0 5.0 64 64
r 0.55084 2 3 cbr 210 ------- 2 1.0 5.0 24 24
h 0.55084 3 6 cbr 210 ------- 2 1.0 5.0 24 24
+ 0.55125 1 2 cbr 210 ------- 2 1.0 5.0 67 67
- 0.55125 1 2 cbr 210 ------- 2 1.0 5.0 67 67
+ 0.55164 3 6 cbr 210 ------- 2 1.0 5.0 17 17
- 0.55164 3 6 cbr 210 ------- 2 1.0 5.0 17 17
- 0.55164 2 3 cbr 210 ------- 2 1.0 5.0 43 43
d 0.551644 4 6 cbr 210 ------- 2 1.0 5.0 17 17
r 0.552444 6 5 cbr 210 ------- 2 1.0 5.0 10 10
r 0.55459 1 2 cbr 210 ------- 2 1.0 5.0 65 65
+ 0.55459 2 3 cbr 210 ------- 2 1.0 5.0 65 65
+ 0.555 1 2 cbr 210 ------- 2 1.0 5.0 68 68
- 0.555 1 2 cbr 210 ------- 2 1.0 5.0 68 68
r 0.55644 2 3 cbr 210 ------- 2 1.0 5.0 25 25
h 0.55644 3 6 cbr 210 ------- 2 1.0 5.0 25 25
+ 0.55724 3 6 cbr 210 ------- 2 1.0 5.0 18 18
- 0.55724 3 6 cbr 210 ------- 2 1.0 5.0 18 18
- 0.55724 2 3 cbr 210 ------- 2 1.0 5.0 44 44
d 0.557244 4 6 cbr 210 ------- 2 1.0 5.0 18 18
r 0.558044 6 5 cbr 210 ------- 2 1.0 5.0 11 11
r 0.55834 1 2 cbr 210 ------- 2 1.0 5.0 66 66
+ 0.55834 2 3 cbr 210 ------- 2 1.0 5.0 66 66
+ 0.55875 1 2 cbr 210 ------- 2 1.0 5.0 69 69
- 0.55875 1 2 cbr 210 ------- 2 1.0 5.0 69 69
r 0.56204 2 3 cbr 210 ------- 2 1.0 5.0 26 26
h 0.56204 3 6 cbr 210 ------- 2 1.0 5.0 26 26
r 0.56209 1 2 cbr 210 ------- 2 1.0 5.0 67 67
+ 0.56209 2 3 cbr 210 ------- 2 1.0 5.0 67 67
+ 0.5625 1 2 cbr 210 ------- 2 1.0 5.0 70 70
- 0.5625 1 2 cbr 210 ------- 2 1.0 5.0 70 70
+ 0.56284 3 6 cbr 210 ------- 2 1.0 5.0 19 19
- 0.56284 3 6 cbr 210 ------- 2 1.0 5.0 19 19
- 0.56284 2 3 cbr 210 ------- 2 1.0 5.0 45 45
d 0.562844 4 6 cbr 210 ------- 2 1.0 5.0 19 19
r 0.563644 6 5 cbr 210 ------- 2 1.0 5.0 12 12
r 0.56584 1 2 cbr 210 ------- 2 1.0 5.0 68 68
+ 0.56584 2 3 cbr 210 ------- 2 1.0 5.0 68 68
+ 0.56625 1 2 cbr 210 ------- 2 1.0 5.0 71 71
- 0.56625 1 2 cbr 210 ------- 2 1.0 5.0 71 71
r 0.56764 2 3 cbr 210 ------- 2 1.0 5.0 27 27
h 0.56764 3 6 cbr 210 ------- 2 1.0 5.0 27 27
+ 0.56844 3 6 cbr 210 ------- 2 1.0 5.0 20 20
- 0.56844 3 6 cbr 210 ------- 2 1.0 5.0 20 20
- 0.56844 2 3 cbr 210 ------- 2 1.0 5.0 46 46
d 0.568444 4 6 cbr 210 ------- 2 1.0 5.0 20 20
r 0.569244 6 5 cbr 210 ------- 2 1.0 5.0 13 13
r 0.56959 1 2 cbr 210 ------- 2 1.0 5.0 69 69
+ 0.56959 2 3 cbr 210 ------- 2 1.0 5.0 69 69
+ 0.57 1 2 cbr 210 ------- 2 1.0 5.0 72 72
- 0.57 1 2 cbr 210 ------- 2 1.0 5.0 72 72
r 0.57324 2 3 cbr 210 ------- 2 1.0 5.0 28 28
h 0.57324 3 6 cbr 210 ------- 2 1.0 5.0 28 28
r 0.57334 1 2 cbr 210 ------- 2 1.0 5.0 70 70
+ 0.57334 2 3 cbr 210 ------- 2 1.0 5.0 70 70
+ 0.57375 1 2 cbr 210 ------- 2 1.0 5.0 73 73
- 0.57375 1 2 cbr 210 ------- 2 1.0 5.0 73 73
+ 0.57404 3 6 cbr 210 ------- 2 1.0 5.0 21 21
- 0.57404 3 6 cbr 210 ------- 2 1.0 5.0 21 21
- 0.57404 2 3 cbr 210 ------- 2 1.0 5.0 47 47
d 0.574044 4 6 cbr 210 ------- 2 1.0 5.0 21 21
r 0.574844 6 5 cbr 210 ------- 2 1.0 5.0 14 14
r 0.57709 1 2 cbr 210 ------- 2 1.0 5.0 71 71
+ 0.57709 2 3 cbr 210 ------- 2 1.0 5.0 71 71
+ 0.5775 1 2 cbr 210 ------- 2 1.0 5.0 74 74
- 0.5775 1 2 cbr 210 ------- 2 1.0 5.0 74 74
r 0.57884 2 3 cbr 210 ------- 2 1.0 5.0 29 29
h 0.57884 3 6 cbr 210 ------- 2 1.0 5.0 29 29
+ 0.57964 3 6 cbr 210 ------- 2 1.0 5.0 22 22
- 0.57964 3 6 cbr 210 ------- 2 1.0 5.0 22 22
- 0.57964 2 3 cbr 210 ------- 2 1.0 5.0 48 48
d 0.579644 4 6 cbr 210 ------- 2 1.0 5.0 22 22
r 0.580444 6 5 cbr 210 ------- 2 1.0 5.0 15 15
r 0.58084 1 2 cbr 210 ------- 2 1.0 5.0 72 72
+ 0.58084 2 3 cbr 210 ------- 2 1.0 5.0 72 72
+ 0.58125 1 2 cbr 210 ------- 2 1.0 5.0 75 75
- 0.58125 1 2 cbr 210 ------- 2 1.0 5.0 75 75
r 0.58444 2 3 cbr 210 ------- 2 1.0 5.0 30 30
h 0.58444 3 6 cbr 210 ------- 2 1.0 5.0 30 30
r 0.58459 1 2 cbr 210 ------- 2 1.0 5.0 73 73
+ 0.58459 2 3 cbr 210 ------- 2 1.0 5.0 73 73
+ 0.585 1 2 cbr 210 ------- 2 1.0 5.0 76 76
- 0.585 1 2 cbr 210 ------- 2 1.0 5.0 76 76
+ 0.58524 3 6 cbr 210 ------- 2 1.0 5.0 23 23
- 0.58524 3 6 cbr 210 ------- 2 1.0 5.0 23 23
- 0.58524 2 3 cbr 210 ------- 2 1.0 5.0 49 49
d 0.585244 4 6 cbr 210 ------- 2 1.0 5.0 23 23
r 0.586044 6 5 cbr 210 ------- 2 1.0 5.0 16 16
r 0.58834 1 2 cbr 210 ------- 2 1.0 5.0 74 74
+ 0.58834 2 3 cbr 210 ------- 2 1.0 5.0 74 74
+ 0.58875 1 2 cbr 210 ------- 2 1.0 5.0 77 77
- 0.58875 1 2 cbr 210 ------- 2 1.0 5.0 77 77
r 0.59004 2 3 cbr 210 ------- 2 1.0 5.0 31 31
h 0.59004 3 6 cbr 210 ------- 2 1.0 5.0 31 31
+ 0.59084 3 6 cbr 210 ------- 2 1.0 5.0 24 24
- 0.59084 3 6 cbr 210 ------- 2 1.0 5.0 24 24
- 0.59084 2 3 cbr 210 ------- 2 1.0 5.0 50 50
d 0.590844 4 6 cbr 210 ------- 2 1.0 5.0 24 24
r 0.591644 6 5 cbr 210 ------- 2 1.0 5.0 17 17
r 0.59209 1 2 cbr 210 ------- 2 1.0 5.0 75 75
+ 0.59209 2 3 cbr 210 ------- 2 1.0 5.0 75 75
+ 0.5925 1 2 cbr 210 ------- 2 1.0 5.0 78 78
- 0.5925 1 2 cbr 210 ------- 2 1.0 5.0 78 78
r 0.59564 2 3 cbr 210 ------- 2 1.0 5.0 32 32
h 0.59564 3 6 cbr 210 ------- 2 1.0 5.0 32 32
r 0.59584 1 2 cbr 210 ------- 2 1.0 5.0 76 76
+ 0.59584 2 3 cbr 210 ------- 2 1.0 5.0 76 76
+ 0.59625 1 2 cbr 210 ------- 2 1.0 5.0 79 79
- 0.59625 1 2 cbr 210 ------- 2 1.0 5.0 79 79
+ 0.59644 3 6 cbr 210 ------- 2 1.0 5.0 25 25
- 0.59644 3 6 cbr 210 ------- 2 1.0 5.0 25 25
- 0.59644 2 3 cbr 210 ------- 2 1.0 5.0 51 51
d 0.596444 4 6 cbr 210 ------- 2 1.0 5.0 25 25
r 0.597244 6 5 cbr 210 ------- 2 1.0 5.0 18 18
r 0.59959 1 2 cbr 210 ------- 2 1.0 5.0 77 77
+ 0.59959 2 3 cbr 210 ------- 2 1.0 5.0 77 77
+ 0.6 1 2 cbr 210 ------- 2 1.0 5.0 80 80
- 0.6 1 2 cbr 210 ------- 2 1.0 5.0 80 80
r 0.60124 2 3 cbr 210 ------- 2 1.0 5.0 33 33
h 0.60124 3 6 cbr 210 ------- 2 1.0 5.0 33 33
+ 0.60204 3 6 cbr 210 ------- 2 1.0 5.0 26 26
- 0.60204 3 6 cbr 210 ------- 2 1.0 5.0 26 26
- 0.60204 2 3 cbr 210 ------- 2 1.0 5.0 52 52
d 0.602044 4 6 cbr 210 ------- 2 1.0 5.0 26 26
r 0.602844 6 5 cbr 210 ------- 2 1.0 5.0 19 19
r 0.60334 1 2 cbr 210 ------- 2 1.0 5.0 78 78
+ 0.60334 2 3 cbr 210 ------- 2 1.0 5.0 78 78
+ 0.60375 1 2 cbr 210 ------- 2 1.0 5.0 81 81
- 0.60375 1 2 cbr 210 ------- 2 1.0 5.0 81 81
r 0.60684 2 3 cbr 210 ------- 2 1.0 5.0 34 34
h 0.60684 3 6 cbr 210 ------- 2 1.0 5.0 34 34
r 0.60709 1 2 cbr 210 ------- 2 1.0 5.0 79 79
+ 0.60709 2 3 cbr 210 ------- 2 1.0 5.0 79 79
+ 0.6075 1 2 cbr 210 ------- 2 1.0 5.0 82 82
- 0.6075 1 2 cbr 210 ------- 2 1.0 5.0 82 82
+ 0.60764 3 6 cbr 210 ------- 2 1.0 5.0 27 27
- 0.60764 3 6 cbr 210 ------- 2 1.0 5.0 27 27
- 0.60764 2 3 cbr 210 ------- 2 1.0 5.0 53 53
d 0.607644 4 6 cbr 210 ------- 2 1.0 5.0 27 27
r 0.608444 6 5 cbr 210 ------- 2 1.0 5.0 20 20
r 0.61084 1 2 cbr 210 ------- 2 1.0 5.0 80 80
+ 0.61084 2 3 cbr 210 ------- 2 1.0 5.0 80 80
+ 0.61125 1 2 cbr 210 ------- 2 1.0 5.0 83 83
- 0.61125 1 2 cbr 210 ------- 2 1.0 5.0 83 83
r 0.61244 2 3 cbr 210 ------- 2 1.0 5.0 35 35
h 0.61244 3 6 cbr 210 ------- 2 1.0 5.0 35 35
+ 0.61324 3 6 cbr 210 ------- 2 1.0 5.0 28 28
- 0.61324 3 6 cbr 210 ------- 2 1.0 5.0 28 28
- 0.61324 2 3 cbr 210 ------- 2 1.0 5.0 54 54
d 0.613244 4 6 cbr 210 ------- 2 1.0 5.0 28 28
r 0.614044 6 5 cbr 210 ------- 2 1.0 5.0 21 21
r 0.61459 1 2 cbr 210 ------- 2 1.0 5.0 81 81
+ 0.61459 2 3 cbr 210 ------- 2 1.0 5.0 81 81
+ 0.615 1 2 cbr 210 ------- 2 1.0 5.0 84 84
- 0.615 1 2 cbr 210 ------- 2 1.0 5.0 84 84
r 0.61804 2 3 cbr 210 ------- 2 1.0 5.0 36 36
h 0.61804 3 6 cbr 210 ------- 2 1.0 5.0 36 36
r 0.61834 1 2 cbr 210 ------- 2 1.0 5.0 82 82
+ 0.61834 2 3 cbr 210 ------- 2 1.0 5.0 82 82
+ 0.61875 1 2 cbr 210 ------- 2 1.0 5.0 85 85
- 0.61875 1 2 cbr 210 ------- 2 1.0 5.0 85 85
+ 0.61884 3 6 cbr 210 ------- 2 1.0 5.0 29 29
- 0.61884 3 6 cbr 210 ------- 2 1.0 5.0 29 29
- 0.61884 2 3 cbr 210 ------- 2 1.0 5.0 55 55
d 0.618844 4 6 cbr 210 ------- 2 1.0 5.0 29 29
r 0.619644 6 5 cbr 210 ------- 2 1.0 5.0 22 22
r 0.62209 1 2 cbr 210 ------- 2 1.0 5.0 83 83
+ 0.62209 2 3 cbr 210 ------- 2 1.0 5.0 83 83
+ 0.6225 1 2 cbr 210 ------- 2 1.0 5.0 86 86
- 0.6225 1 2 cbr 210 ------- 2 1.0 5.0 86 86
r 0.62364 2 3 cbr 210 ------- 2 1.0 5.0 37 37
h 0.62364 3 6 cbr 210 ------- 2 1.0 5.0 37 37
+ 0.62444 3 6 cbr 210 ------- 2 1.0 5.0 30 30
- 0.62444 3 6 cbr 210 ------- 2 1.0 5.0 30 30
- 0.62444 2 3 cbr 210 ------- 2 1.0 5.0 56 56
d 0.624444 4 6 cbr 210 ------- 2 1.0 5.0 30 30
r 0.625244 6 5 cbr 210 ------- 2 1.0 5.0 23 23
r 0.62584 1 2 cbr 210 ------- 2 1.0 5.0 84 84
+ 0.62584 2 3 cbr 210 ------- 2 1.0 5.0 84 84
+ 0.62625 1 2 cbr 210 ------- 2 1.0 5.0 87 87
- 0.62625 1 2 cbr 210 ------- 2 1.0 5.0 87 87
r 0.62924 2 3 cbr 210 ------- 2 1.0 5.0 38 38
h 0.62924 3 6 cbr 210 ------- 2 1.0 5.0 38 38
r 0.62959 1 2 cbr 210 ------- 2 1.0 5.0 85 85
+ 0.62959 2 3 cbr 210 ------- 2 1.0 5.0 85 85
+ 0.63 1 2 cbr 210 ------- 2 1.0 5.0 88 88
- 0.63 1 2 cbr 210 ------- 2 1.0 5.0 88 88
+ 0.63004 3 6 cbr 210 ------- 2 1.0 5.0 31 31
- 0.63004 3 6 cbr 210 ------- 2 1.0 5.0 31 31
- 0.63004 2 3 cbr 210 ------- 2 1.0 5.0 57 57
d 0.630044 4 6 cbr 210 ------- 2 1.0 5.0 31 31
r 0.630844 6 5 cbr 210 ------- 2 1.0 5.0 24 24
r 0.63334 1 2 cbr 210 ------- 2 1.0 5.0 86 86
+ 0.63334 2 3 cbr 210 ------- 2 1.0 5.0 86 86
+ 0.63375 1 2 cbr 210 ------- 2 1.0 5.0 89 89
- 0.63375 1 2 cbr 210 ------- 2 1.0 5.0 89 89
r 0.63484 2 3 cbr 210 ------- 2 1.0 5.0 39 39
h 0.63484 3 6 cbr 210 ------- 2 1.0 5.0 39 39
+ 0.63564 3 6 cbr 210 ------- 2 1.0 5.0 32 32
- 0.63564 3 6 cbr 210 ------- 2 1.0 5.0 32 32
- 0.63564 2 3 cbr 210 ------- 2 1.0 5.0 58 58
d 0.635644 4 6 cbr 210 ------- 2 1.0 5.0 32 32
r 0.636444 6 5 cbr 210 ------- 2 1.0 5.0 25 25
r 0.63709 1 2 cbr 210 ------- 2 1.0 5.0 87 87
+ 0.63709 2 3 cbr 210 ------- 2 1.0 5.0 87 87
+ 0.6375 1 2 cbr 210 ------- 2 1.0 5.0 90 90
- 0.6375 1 2 cbr 210 ------- 2 1.0 5.0 90 90
r 0.64044 2 3 cbr 210 ------- 2 1.0 5.0 40 40
h 0.64044 3 6 cbr 210 ------- 2 1.0 5.0 40 40
r 0.64084 1 2 cbr 210 ------- 2 1.0 5.0 88 88
+ 0.64084 2 3 cbr 210 ------- 2 1.0 5.0 88 88
+ 0.64124 3 6 cbr 210 ------- 2 1.0 5.0 33 33
- 0.64124 3 6 cbr 210 ------- 2 1.0 5.0 33 33
- 0.64124 2 3 cbr 210 ------- 2 1.0 5.0 59 59
d 0.641244 4 6 cbr 210 ------- 2 1.0 5.0 33 33
+ 0.64125 1 2 cbr 210 ------- 2 1.0 5.0 91 91
- 0.64125 1 2 cbr 210 ------- 2 1.0 5.0 91 91
r 0.642044 6 5 cbr 210 ------- 2 1.0 5.0 26 26
r 0.64459 1 2 cbr 210 ------- 2 1.0 5.0 89 89
+ 0.64459 2 3 cbr 210 ------- 2 1.0 5.0 89 89
+ 0.645 1 2 cbr 210 ------- 2 1.0 5.0 92 92
- 0.645 1 2 cbr 210 ------- 2 1.0 5.0 92 92
r 0.64604 2 3 cbr 210 ------- 2 1.0 5.0 41 41
h 0.64604 3 6 cbr 210 ------- 2 1.0 5.0 41 41
+ 0.64684 3 6 cbr 210 ------- 2 1.0 5.0 34 34
- 0.64684 3 6 cbr 210 ------- 2 1.0 5.0 34 34
- 0.64684 2 3 cbr 210 ------- 2 1.0 5.0 60 60
d 0.646844 4 6 cbr 210 ------- 2 1.0 5.0 34 34
r 0.647644 6 5 cbr 210 ------- 2 1.0 5.0 27 27
r 0.64834 1 2 cbr 210 ------- 2 1.0 5.0 90 90
+ 0.64834 2 3 cbr 210 ------- 2 1.0 5.0 90 90
+ 0.64875 1 2 cbr 210 ------- 2 1.0 5.0 93 93
- 0.64875 1 2 cbr 210 ------- 2 1.0 5.0 93 93
r 0.65164 2 3 cbr 210 ------- 2 1.0 5.0 42 42
h 0.65164 3 6 cbr 210 ------- 2 1.0 5.0 42 42
r 0.65209 1 2 cbr 210 ------- 2 1.0 5.0 91 91
+ 0.65209 2 3 cbr 210 ------- 2 1.0 5.0 91 91
+ 0.65244 3 6 cbr 210 ------- 2 1.0 5.0 35 35
- 0.65244 3 6 cbr 210 ------- 2 1.0 5.0 35 35
- 0.65244 2 3 cbr 210 ------- 2 1.0 5.0 61 61
d 0.652444 4 6 cbr 210 ------- 2 1.0 5.0 35 35
+ 0.6525 1 2 cbr 210 ------- 2 1.0 5.0 94 94
- 0.6525 1 2 cbr 210 ------- 2 1.0 5.0 94 94
r 0.653244 6 5 cbr 210 ------- 2 1.0 5.0 28 28