+ 1 1 0 tcp 40 ------- 0 1.0 3.0 0 0
- 1 1 0 tcp 40 ------- 0 1.0 3.0 0 0
r 1.01016 1 0 tcp 40 ------- 0 1.0 3.0 0 0
+ 1.01016 0 3 tcp 40 ------- 0 1.0 3.0 0 0
- 1.01016 0 3 tcp 40 ------- 0 1.0 3.0 0 0
r 1.020192 0 3 tcp 40 ------- 0 1.0 3.0 0 0
+ 1.020192 3 0 ack 40 ------- 0 3.0 1.0 0 1
- 1.020192 3 0 ack 40 ------- 0 3.0 1.0 0 1
r 1.030224 3 0 ack 40 ------- 0 3.0 1.0 0 1
+ 1.030224 0 1 ack 40 ------- 0 3.0 1.0 0 1
- 1.030224 0 1 ack 40 ------- 0 3.0 1.0 0 1
r 1.040384 0 1 ack 40 ------- 0 3.0 1.0 0 1
+ 1.040384 1 0 tcp 1040 ------- 0 1.0 3.0 1 2
- 1.040384 1 0 tcp 1040 ------- 0 1.0 3.0 1 2
+ 1.040384 1 0 tcp 1040 ------- 0 1.0 3.0 2 3
- 1.044544 1 0 tcp 1040 ------- 0 1.0 3.0 2 3
r 1.054544 1 0 tcp 1040 ------- 0 1.0 3.0 1 2
+ 1.054544 0 3 tcp 1040 ------- 0 1.0 3.0 1 2
- 1.054544 0 3 tcp 1040 ------- 0 1.0 3.0 1 2
r 1.058704 1 0 tcp 1040 ------- 0 1.0 3.0 2 3
+ 1.058704 0 3 tcp 1040 ------- 0 1.0 3.0 2 3
- 1.058704 0 3 tcp 1040 ------- 0 1.0 3.0 2 3
r 1.065376 0 3 tcp 1040 ------- 0 1.0 3.0 1 2
+ 1.065376 3 0 ack 40 ------- 0 3.0 1.0 1 4
- 1.065376 3 0 ack 40 ------- 0 3.0 1.0 1 4
r 1.069536 0 3 tcp 1040 ------- 0 1.0 3.0 2 3
+ 1.069536 3 0 ack 40 ------- 0 3.0 1.0 2 5
- 1.069536 3 0 ack 40 ------- 0 3.0 1.0 2 5
r 1.075408 3 0 ack 40 ------- 0 3.0 1.0 1 4
+ 1.075408 0 1 ack 40 ------- 0 3.0 1.0 1 4
- 1.075408 0 1 ack 40 ------- 0 3.0 1.0 1 4
r 1.079568 3 0 ack 40 ------- 0 3.0 1.0 2 5
+ 1.079568 0 1 ack 40 ------- 0 3.0 1.0 2 5
- 1.079568 0 1 ack 40 ------- 0 3.0 1.0 2 5
r 1.085568 0 1 ack 40 ------- 0 3.0 1.0 1 4
+ 1.085568 1 0 tcp 1040 ------- 0 1.0 3.0 3 6
- 1.085568 1 0 tcp 1040 ------- 0 1.0 3.0 3 6
+ 1.085568 1 0 tcp 1040 ------- 0 1.0 3.0 4 7
r 1.089728 0 1 ack 40 ------- 0 3.0 1.0 2 5
+ 1.089728 1 0 tcp 1040 ------- 0 1.0 3.0 5 8
+ 1.089728 1 0 tcp 1040 ------- 0 1.0 3.0 6 9
- 1.089728 1 0 tcp 1040 ------- 0 1.0 3.0 4 7
- 1.093888 1 0 tcp 1040 ------- 0 1.0 3.0 5 8
- 1.098048 1 0 tcp 1040 ------- 0 1.0 3.0 6 9
r 1.099728 1 0 tcp 1040 ------- 0 1.0 3.0 3 6
+ 1.099728 0 3 tcp 1040 ------- 0 1.0 3.0 3 6
- 1.099728 0 3 tcp 1040 ------- 0 1.0 3.0 3 6
r 1.103888 1 0 tcp 1040 ------- 0 1.0 3.0 4 7
+ 1.103888 0 3 tcp 1040 ------- 0 1.0 3.0 4 7
- 1.103888 0 3 tcp 1040 ------- 0 1.0 3.0 4 7
r 1.108048 1 0 tcp 1040 ------- 0 1.0 3.0 5 8
+ 1.108048 0 3 tcp 1040 ------- 0 1.0 3.0 5 8
- 1.108048 0 3 tcp 1040 ------- 0 1.0 3.0 5 8
r 1.11056 0 3 tcp 1040 ------- 0 1.0 3.0 3 6
+ 1.11056 3 0 ack 40 ------- 0 3.0 1.0 3 10
- 1.11056 3 0 ack 40 ------- 0 3.0 1.0 3 10
r 1.112208 1 0 tcp 1040 ------- 0 1.0 3.0 6 9
+ 1.112208 0 3 tcp 1040 ------- 0 1.0 3.0 6 9
- 1.112208 0 3 tcp 1040 ------- 0 1.0 3.0 6 9
r 1.11472 0 3 tcp 1040 ------- 0 1.0 3.0 4 7
+ 1.11472 3 0 ack 40 ------- 0 3.0 1.0 4 11
- 1.11472 3 0 ack 40 ------- 0 3.0 1.0 4 11
r 1.11888 0 3 tcp 1040 ------- 0 1.0 3.0 5 8
+ 1.11888 3 0 ack 40 ------- 0 3.0 1.0 5 12
- 1.11888 3 0 ack 40 ------- 0 3.0 1.0 5 12
r 1.120592 3 0 ack 40 ------- 0 3.0 1.0 3 10
+ 1.120592 0 1 ack 40 ------- 0 3.0 1.0 3 10
- 1.120592 0 1 ack 40 ------- 0 3.0 1.0 3 10
r 1.12304 0 3 tcp 1040 ------- 0 1.0 3.0 6 9
+ 1.12304 3 0 ack 40 ------- 0 3.0 1.0 6 13
- 1.12304 3 0 ack 40 ------- 0 3.0 1.0 6 13
r 1.124752 3 0 ack 40 ------- 0 3.0 1.0 4 11
+ 1.124752 0 1 ack 40 ------- 0 3.0 1.0 4 11
- 1.124752 0 1 ack 40 ------- 0 3.0 1.0 4 11
r 1.128912 3 0 ack 40 ------- 0 3.0 1.0 5 12
+ 1.128912 0 1 ack 40 ------- 0 3.0 1.0 5 12
- 1.128912 0 1 ack 40 ------- 0 3.0 1.0 5 12
r 1.130752 0 1 ack 40 ------- 0 3.0 1.0 3 10
+ 1.130752 1 0 tcp 1040 ------- 0 1.0 3.0 7 14
- 1.130752 1 0 tcp 1040 ------- 0 1.0 3.0 7 14
+ 1.130752 1 0 tcp 1040 ------- 0 1.0 3.0 8 15
r 1.133072 3 0 ack 40 ------- 0 3.0 1.0 6 13
+ 1.133072 0 1 ack 40 ------- 0 3.0 1.0 6 13
- 1.133072 0 1 ack 40 ------- 0 3.0 1.0 6 13
r 1.134912 0 1 ack 40 ------- 0 3.0 1.0 4 11
+ 1.134912 1 0 tcp 1040 ------- 0 1.0 3.0 9 16
+ 1.134912 1 0 tcp 1040 ------- 0 1.0 3.0 10 17
- 1.134912 1 0 tcp 1040 ------- 0 1.0 3.0 8 15
r 1.139072 0 1 ack 40 ------- 0 3.0 1.0 5 12
+ 1.139072 1 0 tcp 1040 ------- 0 1.0 3.0 11 18
+ 1.139072 1 0 tcp 1040 ------- 0 1.0 3.0 12 19
- 1.139072 1 0 tcp 1040 ------- 0 1.0 3.0 9 16
r 1.143232 0 1 ack 40 ------- 0 3.0 1.0 6 13
+ 1.143232 1 0 tcp 1040 ------- 0 1.0 3.0 13 20
+ 1.143232 1 0 tcp 1040 ------- 0 1.0 3.0 14 21
- 1.143232 1 0 tcp 1040 ------- 0 1.0 3.0 10 17
r 1.144912 1 0 tcp 1040 ------- 0 1.0 3.0 7 14
+ 1.144912 0 3 tcp 1040 ------- 0 1.0 3.0 7 14
- 1.144912 0 3 tcp 1040 ------- 0 1.0 3.0 7 14
- 1.147392 1 0 tcp 1040 ------- 0 1.0 3.0 11 18
r 1.149072 1 0 tcp 1040 ------- 0 1.0 3.0 8 15
+ 1.149072 0 3 tcp 1040 ------- 0 1.0 3.0 8 15
- 1.149072 0 3 tcp 1040 ------- 0 1.0 3.0 8 15
- 1.151552 1 0 tcp 1040 ------- 0 1.0 3.0 12 19
r 1.153232 1 0 tcp 1040 ------- 0 1.0 3.0 9 16
+ 1.153232 0 3 tcp 1040 ------- 0 1.0 3.0 9 16
- 1.153232 0 3 tcp 1040 ------- 0 1.0 3.0 9 16
- 1.155712 1 0 tcp 1040 ------- 0 1.0 3.0 13 20
r 1.155744 0 3 tcp 1040 ------- 0 1.0 3.0 7 14
+ 1.155744 3 0 ack 40 ------- 0 3.0 1.0 7 22
- 1.155744 3 0 ack 40 ------- 0 3.0 1.0 7 22
r 1.157392 1 0 tcp 1040 ------- 0 1.0 3.0 10 17
+ 1.157392 0 3 tcp 1040 ------- 0 1.0 3.0 10 17
- 1.157392 0 3 tcp 1040 ------- 0 1.0 3.0 10 17
- 1.159872 1 0 tcp 1040 ------- 0 1.0 3.0 14 21
r 1.159904 0 3 tcp 1040 ------- 0 1.0 3.0 8 15
+ 1.159904 3 0 ack 40 ------- 0 3.0 1.0 8 23
- 1.159904 3 0 ack 40 ------- 0 3.0 1.0 8 23
r 1.161552 1 0 tcp 1040 ------- 0 1.0 3.0 11 18
+ 1.161552 0 3 tcp 1040 ------- 0 1.0 3.0 11 18
- 1.161552 0 3 tcp 1040 ------- 0 1.0 3.0 11 18
r 1.164064 0 3 tcp 1040 ------- 0 1.0 3.0 9 16
+ 1.164064 3 0 ack 40 ------- 0 3.0 1.0 9 24
- 1.164064 3 0 ack 40 ------- 0 3.0 1.0 9 24
r 1.165712 1 0 tcp 1040 ------- 0 1.0 3.0 12 19
+ 1.165712 0 3 tcp 1040 ------- 0 1.0 3.0 12 19
- 1.165712 0 3 tcp 1040 ------- 0 1.0 3.0 12 19
r 1.165776 3 0 ack 40 ------- 0 3.0 1.0 7 22
+ 1.165776 0 1 ack 40 ------- 0 3.0 1.0 7 22
- 1.165776 0 1 ack 40 ------- 0 3.0 1.0 7 22
r 1.168224 0 3 tcp 1040 ------- 0 1.0 3.0 10 17
+ 1.168224 3 0 ack 40 ------- 0 3.0 1.0 10 25
- 1.168224 3 0 ack 40 ------- 0 3.0 1.0 10 25
r 1.169872 1 0 tcp 1040 ------- 0 1.0 3.0 13 20
+ 1.169872 0 3 tcp 1040 ------- 0 1.0 3.0 13 20
- 1.169872 0 3 tcp 1040 ------- 0 1.0 3.0 13 20
r 1.169936 3 0 ack 40 ------- 0 3.0 1.0 8 23
+ 1.169936 0 1 ack 40 ------- 0 3.0 1.0 8 23
- 1.169936 0 1 ack 40 ------- 0 3.0 1.0 8 23
r 1.172384 0 3 tcp 1040 ------- 0 1.0 3.0 11 18
+ 1.172384 3 0 ack 40 ------- 0 3.0 1.0 11 26
- 1.172384 3 0 ack 40 ------- 0 3.0 1.0 11 26
r 1.174032 1 0 tcp 1040 ------- 0 1.0 3.0 14 21
+ 1.174032 0 3 tcp 1040 ------- 0 1.0 3.0 14 21
- 1.174032 0 3 tcp 1040 ------- 0 1.0 3.0 14 21
r 1.174096 3 0 ack 40 ------- 0 3.0 1.0 9 24
+ 1.174096 0 1 ack 40 ------- 0 3.0 1.0 9 24
- 1.174096 0 1 ack 40 ------- 0 3.0 1.0 9 24
r 1.175936 0 1 ack 40 ------- 0 3.0 1.0 7 22
+ 1.175936 1 0 tcp 1040 ------- 0 1.0 3.0 15 27
- 1.175936 1 0 tcp 1040 ------- 0 1.0 3.0 15 27
+ 1.175936 1 0 tcp 1040 ------- 0 1.0 3.0 16 28
r 1.176544 0 3 tcp 1040 ------- 0 1.0 3.0 12 19
+ 1.176544 3 0 ack 40 ------- 0 3.0 1.0 12 29
- 1.176544 3 0 ack 40 ------- 0 3.0 1.0 12 29
r 1.178256 3 0 ack 40 ------- 0 3.0 1.0 10 25
+ 1.178256 0 1 ack 40 ------- 0 3.0 1.0 10 25
- 1.178256 0 1 ack 40 ------- 0 3.0 1.0 10 25
r 1.180096 0 1 ack 40 ------- 0 3.0 1.0 8 23
+ 1.180096 1 0 tcp 1040 ------- 0 1.0 3.0 17 30
+ 1.180096 1 0 tcp 1040 ------- 0 1.0 3.0 18 31
- 1.180096 1 0 tcp 1040 ------- 0 1.0 3.0 16 28
r 1.180704 0 3 tcp 1040 ------- 0 1.0 3.0 13 20
+ 1.180704 3 0 ack 40 ------- 0 3.0 1.0 13 32
- 1.180704 3 0 ack 40 ------- 0 3.0 1.0 13 32
r 1.182416 3 0 ack 40 ------- 0 3.0 1.0 11 26
+ 1.182416 0 1 ack 40 ------- 0 3.0 1.0 11 26
- 1.182416 0 1 ack 40 ------- 0 3.0 1.0 11 26
r 1.184256 0 1 ack 40 ------- 0 3.0 1.0 9 24
+ 1.184256 1 0 tcp 1040 ------- 0 1.0 3.0 19 33
+ 1.184256 1 0 tcp 1040 ------- 0 1.0 3.0 20 34
- 1.184256 1 0 tcp 1040 ------- 0 1.0 3.0 17 30
r 1.184864 0 3 tcp 1040 ------- 0 1.0 3.0 14 21
+ 1.184864 3 0 ack 40 ------- 0 3.0 1.0 14 35
- 1.184864 3 0 ack 40 ------- 0 3.0 1.0 14 35
r 1.186576 3 0 ack 40 ------- 0 3.0 1.0 12 29
+ 1.186576 0 1 ack 40 ------- 0 3.0 1.0 12 29
- 1.186576 0 1 ack 40 ------- 0 3.0 1.0 12 29
r 1.188416 0 1 ack 40 ------- 0 3.0 1.0 10 25
+ 1.188416 1 0 tcp 1040 ------- 0 1.0 3.0 21 36
+ 1.188416 1 0 tcp 1040 ------- 0 1.0 3.0 22 37
- 1.188416 1 0 tcp 1040 ------- 0 1.0 3.0 18 31
r 1.190096 1 0 tcp 1040 ------- 0 1.0 3.0 15 27
+ 1.190096 0 3 tcp 1040 ------- 0 1.0 3.0 15 27
- 1.190096 0 3 tcp 1040 ------- 0 1.0 3.0 15 27
r 1.190736 3 0 ack 40 ------- 0 3.0 1.0 13 32
+ 1.190736 0 1 ack 40 ------- 0 3.0 1.0 13 32
- 1.190736 0 1 ack 40 ------- 0 3.0 1.0 13 32
r 1.192576 0 1 ack 40 ------- 0 3.0 1.0 11 26
+ 1.192576 1 0 tcp 1040 ------- 0 1.0 3.0 23 38
+ 1.192576 1 0 tcp 1040 ------- 0 1.0 3.0 24 39
- 1.192576 1 0 tcp 1040 ------- 0 1.0 3.0 19 33
r 1.194256 1 0 tcp 1040 ------- 0 1.0 3.0 16 28
+ 1.194256 0 3 tcp 1040 ------- 0 1.0 3.0 16 28
- 1.194256 0 3 tcp 1040 ------- 0 1.0 3.0 16 28
r 1.194896 3 0 ack 40 ------- 0 3.0 1.0 14 35
+ 1.194896 0 1 ack 40 ------- 0 3.0 1.0 14 35
- 1.194896 0 1 ack 40 ------- 0 3.0 1.0 14 35
r 1.196736 0 1 ack 40 ------- 0 3.0 1.0 12 29
+ 1.196736 1 0 tcp 1040 ------- 0 1.0 3.0 25 40
+ 1.196736 1 0 tcp 1040 ------- 0 1.0 3.0 26 41
- 1.196736 1 0 tcp 1040 ------- 0 1.0 3.0 20 34
r 1.198416 1 0 tcp 1040 ------- 0 1.0 3.0 17 30
+ 1.198416 0 3 tcp 1040 ------- 0 1.0 3.0 17 30
- 1.198416 0 3 tcp 1040 ------- 0 1.0 3.0 17 30
r 1.200896 0 1 ack 40 ------- 0 3.0 1.0 13 32
+ 1.200896 1 0 tcp 1040 ------- 0 1.0 3.0 27 42
+ 1.200896 1 0 tcp 1040 ------- 0 1.0 3.0 28 43
- 1.200896 1 0 tcp 1040 ------- 0 1.0 3.0 21 36
r 1.200928 0 3 tcp 1040 ------- 0 1.0 3.0 15 27
+ 1.200928 3 0 ack 40 ------- 0 3.0 1.0 15 44
- 1.200928 3 0 ack 40 ------- 0 3.0 1.0 15 44
r 1.202576 1 0 tcp 1040 ------- 0 1.0 3.0 18 31
+ 1.202576 0 3 tcp 1040 ------- 0 1.0 3.0 18 31
- 1.202576 0 3 tcp 1040 ------- 0 1.0 3.0 18 31
r 1.205056 0 1 ack 40 ------- 0 3.0 1.0 14 35
+ 1.205056 1 0 tcp 1040 ------- 0 1.0 3.0 29 45
+ 1.205056 1 0 tcp 1040 ------- 0 1.0 3.0 30 46
- 1.205056 1 0 tcp 1040 ------- 0 1.0 3.0 22 37
r 1.205088 0 3 tcp 1040 ------- 0 1.0 3.0 16 28
+ 1.205088 3 0 ack 40 ------- 0 3.0 1.0 16 47
- 1.205088 3 0 ack 40 ------- 0 3.0 1.0 16 47
r 1.206736 1 0 tcp 1040 ------- 0 1.0 3.0 19 33
+ 1.206736 0 3 tcp 1040 ------- 0 1.0 3.0 19 33
- 1.206736 0 3 tcp 1040 ------- 0 1.0 3.0 19 33
- 1.209216 1 0 tcp 1040 ------- 0 1.0 3.0 23 38
r 1.209248 0 3 tcp 1040 ------- 0 1.0 3.0 17 30
+ 1.209248 3 0 ack 40 ------- 0 3.0 1.0 17 48
- 1.209248 3 0 ack 40 ------- 0 3.0 1.0 17 48
r 1.210896 1 0 tcp 1040 ------- 0 1.0 3.0 20 34
+ 1.210896 0 3 tcp 1040 ------- 0 1.0 3.0 20 34
- 1.210896 0 3 tcp 1040 ------- 0 1.0 3.0 20 34
r 1.21096 3 0 ack 40 ------- 0 3.0 1.0 15 44
+ 1.21096 0 1 ack 40 ------- 0 3.0 1.0 15 44
- 1.21096 0 1 ack 40 ------- 0 3.0 1.0 15 44
- 1.213376 1 0 tcp 1040 ------- 0 1.0 3.0 24 39
r 1.213408 0 3 tcp 1040 ------- 0 1.0 3.0 18 31
+ 1.213408 3 0 ack 40 ------- 0 3.0 1.0 18 49
- 1.213408 3 0 ack 40 ------- 0 3.0 1.0 18 49
r 1.215056 1 0 tcp 1040 ------- 0 1.0 3.0 21 36
+ 1.215056 0 3 tcp 1040 ------- 0 1.0 3.0 21 36
- 1.215056 0 3 tcp 1040 ------- 0 1.0 3.0 21 36
r 1.21512 3 0 ack 40 ------- 0 3.0 1.0 16 47
+ 1.21512 0 1 ack 40 ------- 0 3.0 1.0 16 47
- 1.21512 0 1 ack 40 ------- 0 3.0 1.0 16 47
- 1.217536 1 0 tcp 1040 ------- 0 1.0 3.0 25 40
r 1.217568 0 3 tcp 1040 ------- 0 1.0 3.0 19 33
+ 1.217568 3 0 ack 40 ------- 0 3.0 1.0 19 50
- 1.217568 3 0 ack 40 ------- 0 3.0 1.0 19 50
r 1.219216 1 0 tcp 1040 ------- 0 1.0 3.0 22 37
+ 1.219216 0 3 tcp 1040 ------- 0 1.0 3.0 22 37
- 1.219216 0 3 tcp 1040 ------- 0 1.0 3.0 22 37
r 1.21928 3 0 ack 40 ------- 0 3.0 1.0 17 48
+ 1.21928 0 1 ack 40 ------- 0 3.0 1.0 17 48
- 1.21928 0 1 ack 40 ------- 0 3.0 1.0 17 48
r 1.22112 0 1 ack 40 ------- 0 3.0 1.0 15 44
+ 1.22112 1 0 tcp 1040 ------- 0 1.0 3.0 31 51
+ 1.22112 1 0 tcp 1040 ------- 0 1.0 3.0 32 52
- 1.221696 1 0 tcp 1040 ------- 0 1.0 3.0 26 41
r 1.221728 0 3 tcp 1040 ------- 0 1.0 3.0 20 34
+ 1.221728 3 0 ack 40 ------- 0 3.0 1.0 20 53
- 1.221728 3 0 ack 40 ------- 0 3.0 1.0 20 53
r 1.223376 1 0 tcp 1040 ------- 0 1.0 3.0 23 38
+ 1.223376 0 3 tcp 1040 ------- 0 1.0 3.0 23 38
- 1.223376 0 3 tcp 1040 ------- 0 1.0 3.0 23 38
r 1.22344 3 0 ack 40 ------- 0 3.0 1.0 18 49
+ 1.22344 0 1 ack 40 ------- 0 3.0 1.0 18 49
- 1.22344 0 1 ack 40 ------- 0 3.0 1.0 18 49
r 1.22528 0 1 ack 40 ------- 0 3.0 1.0 16 47
+ 1.22528 1 0 tcp 1040 ------- 0 1.0 3.0 33 54
+ 1.22528 1 0 tcp 1040 ------- 0 1.0 3.0 34 55
- 1.225856 1 0 tcp 1040 ------- 0 1.0 3.0 27 42
r 1.225888 0 3 tcp 1040 ------- 0 1.0 3.0 21 36
+ 1.225888 3 0 ack 40 ------- 0 3.0 1.0 21 56
- 1.225888 3 0 ack 40 ------- 0 3.0 1.0 21 56
r 1.227536 1 0 tcp 1040 ------- 0 1.0 3.0 24 39
+ 1.227536 0 3 tcp 1040 ------- 0 1.0 3.0 24 39
- 1.227536 0 3 tcp 1040 ------- 0 1.0 3.0 24 39
r 1.2276 3 0 ack 40 ------- 0 3.0 1.0 19 50
+ 1.2276 0 1 ack 40 ------- 0 3.0 1.0 19 50
- 1.2276 0 1 ack 40 ------- 0 3.0 1.0 19 50
r 1.22944 0 1 ack 40 ------- 0 3.0 1.0 17 48
+ 1.22944 1 0 tcp 1040 ------- 0 1.0 3.0 35 57
+ 1.22944 1 0 tcp 1040 ------- 0 1.0 3.0 36 58
- 1.230016 1 0 tcp 1040 ------- 0 1.0 3.0 28 43
r 1.230048 0 3 tcp 1040 ------- 0 1.0 3.0 22 37
+ 1.230048 3 0 ack 40 ------- 0 3.0 1.0 22 59
- 1.230048 3 0 ack 40 ------- 0 3.0 1.0 22 59
r 1.231696 1 0 tcp 1040 ------- 0 1.0 3.0 25 40
+ 1.231696 0 3 tcp 1040 ------- 0 1.0 3.0 25 40
- 1.231696 0 3 tcp 1040 ------- 0 1.0 3.0 25 40
r 1.23176 3 0 ack 40 ------- 0 3.0 1.0 20 53
+ 1.23176 0 1 ack 40 ------- 0 3.0 1.0 20 53
- 1.23176 0 1 ack 40 ------- 0 3.0 1.0 20 53
r 1.2336 0 1 ack 40 ------- 0 3.0 1.0 18 49
+ 1.2336 1 0 tcp 1040 ------- 0 1.0 3.0 37 60
+ 1.2336 1 0 tcp 1040 ------- 0 1.0 3.0 38 61
- 1.234176 1 0 tcp 1040 ------- 0 1.0 3.0 29 45
r 1.234208 0 3 tcp 1040 ------- 0 1.0 3.0 23 38
+ 1.234208 3 0 ack 40 ------- 0 3.0 1.0 23 62
- 1.234208 3 0 ack 40 ------- 0 3.0 1.0 23 62
r 1.235856 1 0 tcp 1040 ------- 0 1.0 3.0 26 41
+ 1.235856 0 3 tcp 1040 ------- 0 1.0 3.0 26 41
- 1.235856 0 3 tcp 1040 ------- 0 1.0 3.0 26 41
r 1.23592 3 0 ack 40 ------- 0 3.0 1.0 21 56
+ 1.23592 0 1 ack 40 ------- 0 3.0 1.0 21 56
- 1.23592 0 1 ack 40 ------- 0 3.0 1.0 21 56
r 1.23776 0 1 ack 40 ------- 0 3.0 1.0 19 50
+ 1.23776 1 0 tcp 1040 ------- 0 1.0 3.0 39 63
- 1.238336 1 0 tcp 1040 ------- 0 1.0 3.0 30 46
r 1.238368 0 3 tcp 1040 ------- 0 1.0 3.0 24 39
+ 1.238368 3 0 ack 40 ------- 0 3.0 1.0 24 64
- 1.238368 3 0 ack 40 ------- 0 3.0 1.0 24 64
r 1.240016 1 0 tcp 1040 ------- 0 1.0 3.0 27 42
+ 1.240016 0 3 tcp 1040 ------- 0 1.0 3.0 27 42
- 1.240016 0 3 tcp 1040 ------- 0 1.0 3.0 27 42
r 1.24008 3 0 ack 40 ------- 0 3.0 1.0 22 59
+ 1.24008 0 1 ack 40 ------- 0 3.0 1.0 22 59
- 1.24008 0 1 ack 40 ------- 0 3.0 1.0 22 59
r 1.24192 0 1 ack 40 ------- 0 3.0 1.0 20 53
+ 1.24192 1 0 tcp 1040 ------- 0 1.0 3.0 40 65
- 1.242496 1 0 tcp 1040 ------- 0 1.0 3.0 31 51
r 1.242528 0 3 tcp 1040 ------- 0 1.0 3.0 25 40
+ 1.242528 3 0 ack 40 ------- 0 3.0 1.0 25 66
- 1.242528 3 0 ack 40 ------- 0 3.0 1.0 25 66
r 1.244176 1 0 tcp 1040 ------- 0 1.0 3.0 28 43
+ 1.244176 0 3 tcp 1040 ------- 0 1.0 3.0 28 43
- 1.244176 0 3 tcp 1040 ------- 0 1.0 3.0 28 43
r 1.24424 3 0 ack 40 ------- 0 3.0 1.0 23 62
+ 1.24424 0 1 ack 40 ------- 0 3.0 1.0 23 62
- 1.24424 0 1 ack 40 ------- 0 3.0 1.0 23 62
r 1.24608 0 1 ack 40 ------- 0 3.0 1.0 21 56
+ 1.24608 1 0 tcp 1040 ------- 0 1.0 3.0 41 67
- 1.246656 1 0 tcp 1040 ------- 0 1.0 3.0 32 52
r 1.246688 0 3 tcp 1040 ------- 0 1.0 3.0 26 41
+ 1.246688 3 0 ack 40 ------- 0 3.0 1.0 26 68
- 1.246688 3 0 ack 40 ------- 0 3.0 1.0 26 68
r 1.248336 1 0 tcp 1040 ------- 0 1.0 3.0 29 45
+ 1.248336 0 3 tcp 1040 ------- 0 1.0 3.0 29 45
- 1.248336 0 3 tcp 1040 ------- 0 1.0 3.0 29 45
r 1.2484 3 0 ack 40 ------- 0 3.0 1.0 24 64
+ 1.2484 0 1 ack 40 ------- 0 3.0 1.0 24 64
- 1.2484 0 1 ack 40 ------- 0 3.0 1.0 24 64
r 1.25024 0 1 ack 40 ------- 0 3.0 1.0 22 59
+ 1.25024 1 0 tcp 1040 ------- 0 1.0 3.0 42 69
- 1.250816 1 0 tcp 1040 ------- 0 1.0 3.0 33 54
r 1.250848 0 3 tcp 1040 ------- 0 1.0 3.0 27 42
+ 1.250848 3 0 ack 40 ------- 0 3.0 1.0 27 70
- 1.250848 3 0 ack 40 ------- 0 3.0 1.0 27 70
r 1.252496 1 0 tcp 1040 ------- 0 1.0 3.0 30 46
+ 1.252496 0 3 tcp 1040 ------- 0 1.0 3.0 30 46
- 1.252496 0 3 tcp 1040 ------- 0 1.0 3.0 30 46
r 1.25256 3 0 ack 40 ------- 0 3.0 1.0 25 66
+ 1.25256 0 1 ack 40 ------- 0 3.0 1.0 25 66
- 1.25256 0 1 ack 40 ------- 0 3.0 1.0 25 66
r 1.2544 0 1 ack 40 ------- 0 3.0 1.0 23 62
+ 1.2544 1 0 tcp 1040 ------- 0 1.0 3.0 43 71
- 1.254976 1 0 tcp 1040 ------- 0 1.0 3.0 34 55
r 1.255008 0 3 tcp 1040 ------- 0 1.0 3.0 28 43
+ 1.255008 3 0 ack 40 ------- 0 3.0 1.0 28 72
- 1.255008 3 0 ack 40 ------- 0 3.0 1.0 28 72
r 1.256656 1 0 tcp 1040 ------- 0 1.0 3.0 31 51
+ 1.256656 0 3 tcp 1040 ------- 0 1.0 3.0 31 51
- 1.256656 0 3 tcp 1040 ------- 0 1.0 3.0 31 51
r 1.25672 3 0 ack 40 ------- 0 3.0 1.0 26 68
+ 1.25672 0 1 ack 40 ------- 0 3.0 1.0 26 68
- 1.25672 0 1 ack 40 ------- 0 3.0 1.0 26 68
r 1.25856 0 1 ack 40 ------- 0 3.0 1.0 24 64
+ 1.25856 1 0 tcp 1040 ------- 0 1.0 3.0 44 73
- 1.259136 1 0 tcp 1040 ------- 0 1.0 3.0 35 57
r 1.259168 0 3 tcp 1040 ------- 0 1.0 3.0 29 45
+ 1.259168 3 0 ack 40 ------- 0 3.0 1.0 29 74
- 1.259168 3 0 ack 40 ------- 0 3.0 1.0 29 74
r 1.260816 1 0 tcp 1040 ------- 0 1.0 3.0 32 52
+ 1.260816 0 3 tcp 1040 ------- 0 1.0 3.0 32 52
- 1.260816 0 3 tcp 1040 ------- 0 1.0 3.0 32 52
r 1.26088 3 0 ack 40 ------- 0 3.0 1.0 27 70
+ 1.26088 0 1 ack 40 ------- 0 3.0 1.0 27 70
- 1.26088 0 1 ack 40 ------- 0 3.0 1.0 27 70
r 1.26272 0 1 ack 40 ------- 0 3.0 1.0 25 66
+ 1.26272 1 0 tcp 1040 ------- 0 1.0 3.0 45 75
- 1.263296 1 0 tcp 1040 ------- 0 1.0 3.0 36 58
r 1.263328 0 3 tcp 1040 ------- 0 1.0 3.0 30 46
+ 1.263328 3 0 ack 40 ------- 0 3.0 1.0 30 76
- 1.263328 3 0 ack 40 ------- 0 3.0 1.0 30 76
r 1.264976 1 0 tcp 1040 ------- 0 1.0 3.0 33 54
+ 1.264976 0 3 tcp 1040 ------- 0 1.0 3.0 33 54
- 1.264976 0 3 tcp 1040 ------- 0 1.0 3.0 33 54
r 1.26504 3 0 ack 40 ------- 0 3.0 1.0 28 72
+ 1.26504 0 1 ack 40 ------- 0 3.0 1.0 28 72
- 1.26504 0 1 ack 40 ------- 0 3.0 1.0 28 72
r 1.26688 0 1 ack 40 ------- 0 3.0 1.0 26 68
+ 1.26688 1 0 tcp 1040 ------- 0 1.0 3.0 46 77
- 1.267456 1 0 tcp 1040 ------- 0 1.0 3.0 37 60
r 1.267488 0 3 tcp 1040 ------- 0 1.0 3.0 31 51
+ 1.267488 3 0 ack 40 ------- 0 3.0 1.0 31 78
- 1.267488 3 0 ack 40 ------- 0 3.0 1.0 31 78
r 1.269136 1 0 tcp 1040 ------- 0 1.0 3.0 34 55
+ 1.269136 0 3 tcp 1040 ------- 0 1.0 3.0 34 55
- 1.269136 0 3 tcp 1040 ------- 0 1.0 3.0 34 55
r 1.2692 3 0 ack 40 ------- 0 3.0 1.0 29 74
+ 1.2692 0 1 ack 40 ------- 0 3.0 1.0 29 74
- 1.2692 0 1 ack 40 ------- 0 3.0 1.0 29 74
r 1.27104 0 1 ack 40 ------- 0 3.0 1.0 27 70
+ 1.27104 1 0 tcp 1040 ------- 0 1.0 3.0 47 79
- 1.271616 1 0 tcp 1040 ------- 0 1.0 3.0 38 61
r 1.271648 0 3 tcp 1040 ------- 0 1.0 3.0 32 52
+ 1.271648 3 0 ack 40 ------- 0 3.0 1.0 32 80
- 1.271648 3 0 ack 40 ------- 0 3.0 1.0 32 80
r 1.273296 1 0 tcp 1040 ------- 0 1.0 3.0 35 57
+ 1.273296 0 3 tcp 1040 ------- 0 1.0 3.0 35 57
- 1.273296 0 3 tcp 1040 ------- 0 1.0 3.0 35 57
r 1.27336 3 0 ack 40 ------- 0 3.0 1.0 30 76
+ 1.27336 0 1 ack 40 ------- 0 3.0 1.0 30 76
- 1.27336 0 1 ack 40 ------- 0 3.0 1.0 30 76
r 1.2752 0 1 ack 40 ------- 0 3.0 1.0 28 72
+ 1.2752 1 0 tcp 1040 ------- 0 1.0 3.0 48 81
- 1.275776 1 0 tcp 1040 ------- 0 1.0 3.0 39 63
r 1.275808 0 3 tcp 1040 ------- 0 1.0 3.0 33 54
+ 1.275808 3 0 ack 40 ------- 0 3.0 1.0 33 82
- 1.275808 3 0 ack 40 ------- 0 3.0 1.0 33 82
r 1.277456 1 0 tcp 1040 ------- 0 1.0 3.0 36 58
+ 1.277456 0 3 tcp 1040 ------- 0 1.0 3.0 36 58
- 1.277456 0 3 tcp 1040 ------- 0 1.0 3.0 36 58
r 1.27752 3 0 ack 40 ------- 0 3.0 1.0 31 78
+ 1.27752 0 1 ack 40 ------- 0 3.0 1.0 31 78
- 1.27752 0 1 ack 40 ------- 0 3.0 1.0 31 78
r 1.27936 0 1 ack 40 ------- 0 3.0 1.0 29 74
+ 1.27936 1 0 tcp 1040 ------- 0 1.0 3.0 49 83
- 1.279936 1 0 tcp 1040 ------- 0 1.0 3.0 40 65
r 1.279968 0 3 tcp 1040 ------- 0 1.0 3.0 34 55
+ 1.279968 3 0 ack 40 ------- 0 3.0 1.0 34 84
- 1.279968 3 0 ack 40 ------- 0 3.0 1.0 34 84
r 1.281616 1 0 tcp 1040 ------- 0 1.0 3.0 37 60
+ 1.281616 0 3 tcp 1040 ------- 0 1.0 3.0 37 60
- 1.281616 0 3 tcp 1040 ------- 0 1.0 3.0 37 60
r 1.28168 3 0 ack 40 ------- 0 3.0 1.0 32 80
+ 1.28168 0 1 ack 40 ------- 0 3.0 1.0 32 80
- 1.28168 0 1 ack 40 ------- 0 3.0 1.0 32 80
r 1.28352 0 1 ack 40 ------- 0 3.0 1.0 30 76
+ 1.28352 1 0 tcp 1040 ------- 0 1.0 3.0 50 85
- 1.284096 1 0 tcp 1040 ------- 0 1.0 3.0 41 67
r 1.284128 0 3 tcp 1040 ------- 0 1.0 3.0 35 57
+ 1.284128 3 0 ack 40 ------- 0 3.0 1.0 35 86
- 1.284128 3 0 ack 40 ------- 0 3.0 1.0 35 86
r 1.285776 1 0 tcp 1040 ------- 0 1.0 3.0 38 61
+ 1.285776 0 3 tcp 1040 ------- 0 1.0 3.0 38 61
- 1.285776 0 3 tcp 1040 ------- 0 1.0 3.0 38 61
r 1.28584 3 0 ack 40 ------- 0 3.0 1.0 33 82
+ 1.28584 0 1 ack 40 ------- 0 3.0 1.0 33 82
- 1.28584 0 1 ack 40 ------- 0 3.0 1.0 33 82
r 1.28768 0 1 ack 40 ------- 0 3.0 1.0 31 78
+ 1.28768 1 0 tcp 1040 ------- 0 1.0 3.0 51 87
- 1.288256 1 0 tcp 1040 ------- 0 1.0 3.0 42 69
r 1.288288 0 3 tcp 1040 ------- 0 1.0 3.0 36 58
+ 1.288288 3 0 ack 40 ------- 0 3.0 1.0 36 88
- 1.288288 3 0 ack 40 ------- 0 3.0 1.0 36 88
r 1.289936 1 0 tcp 1040 ------- 0 1.0 3.0 39 63
+ 1.289936 0 3 tcp 1040 ------- 0 1.0 3.0 39 63
- 1.289936 0 3 tcp 1040 ------- 0 1.0 3.0 39 63
r 1.29 3 0 ack 40 ------- 0 3.0 1.0 34 84
+ 1.29 0 1 ack 40 ------- 0 3.0 1.0 34 84
- 1.29 0 1 ack 40 ------- 0 3.0 1.0 34 84
r 1.29184 0 1 ack 40 ------- 0 3.0 1.0 32 80
+ 1.29184 1 0 tcp 1040 ------- 0 1.0 3.0 52 89
- 1.292416 1 0 tcp 1040 ------- 0 1.0 3.0 43 71
r 1.292448 0 3 tcp 1040 ------- 0 1.0 3.0 37 60
+ 1.292448 3 0 ack 40 ------- 0 3.0 1.0 37 90
- 1.292448 3 0 ack 40 ------- 0 3.0 1.0 37 90
r 1.294096 1 0 tcp 1040 ------- 0 1.0 3.0 40 65
+ 1.294096 0 3 tcp 1040 ------- 0 1.0 3.0 40 65
- 1.294096 0 3 tcp 1040 ------- 0 1.0 3.0 40 65
r 1.29416 3 0 ack 40 ------- 0 3.0 1.0 35 86
+ 1.29416 0 1 ack 40 ------- 0 3.0 1.0 35 86
- 1.29416 0 1 ack 40 ------- 0 3.0 1.0 35 86
r 1.296 0 1 ack 40 ------- 0 3.0 1.0 33 82
+ 1.296 1 0 tcp 1040 ------- 0 1.0 3.0 53 91
- 1.296576 1 0 tcp 1040 ------- 0 1.0 3.0 44 73
r 1.296608 0 3 tcp 1040 ------- 0 1.0 3.0 38 61
+ 1.296608 3 0 ack 40 ------- 0 3.0 1.0 38 92
- 1.296608 3 0 ack 40 ------- 0 3.0 1.0 38 92
r 1.298256 1 0 tcp 1040 ------- 0 1.0 3.0 41 67
+ 1.298256 0 3 tcp 1040 ------- 0 1.0 3.0 41 67
- 1.298256 0 3 tcp 1040 ------- 0 1.0 3.0 41 67
r 1.29832 3 0 ack 40 ------- 0 3.0 1.0 36 88
+ 1.29832 0 1 ack 40 ------- 0 3.0 1.0 36 88
- 1.29832 0 1 ack 40 ------- 0 3.0 1.0 36 88
r 1.30016 0 1 ack 40 ------- 0 3.0 1.0 34 84
+ 1.30016 1 0 tcp 1040 ------- 0 1.0 3.0 54 93
- 1.300736 1 0 tcp 1040 ------- 0 1.0 3.0 45 75
r 1.300768 0 3 tcp 1040 ------- 0 1.0 3.0 39 63
+ 1.300768 3 0 ack 40 ------- 0 3.0 1.0 39 94
- 1.300768 3 0 ack 40 ------- 0 3.0 1.0 39 94
r 1.302416 1 0 tcp 1040 ------- 0 1.0 3.0 42 69
+ 1.302416 0 3 tcp 1040 ------- 0 1.0 3.0 42 69
- 1.302416 0 3 tcp 1040 ------- 0 1.0 3.0 42 69
r 1.30248 3 0 ack 40 ------- 0 3.0 1.0 37 90
+ 1.30248 0 1 ack 40 ------- 0 3.0 1.0 37 90
- 1.30248 0 1 ack 40 ------- 0 3.0 1.0 37 90
r 1.30432 0 1 ack 40 ------- 0 3.0 1.0 35 86
+ 1.30432 1 0 tcp 1040 ------- 0 1.0 3.0 55 95
- 1.304896 1 0 tcp 1040 ------- 0 1.0 3.0 46 77
r 1.304928 0 3 tcp 1040 ------- 0 1.0 3.0 40 65
+ 1.304928 3 0 ack 40 ------- 0 3.0 1.0 40 96
- 1.304928 3 0 ack 40 ------- 0 3.0 1.0 40 96
r 1.306576 1 0 tcp 1040 ------- 0 1.0 3.0 43 71
+ 1.306576 0 3 tcp 1040 ------- 0 1.0 3.0 43 71
- 1.306576 0 3 tcp 1040 ------- 0 1.0 3.0 43 71
r 1.30664 3 0 ack 40 ------- 0 3.0 1.0 38 92
+ 1.30664 0 1 ack 40 ------- 0 3.0 1.0 38 92
- 1.30664 0 1 ack 40 ------- 0 3.0 1.0 38 92
r 1.30848 0 1 ack 40 ------- 0 3.0 1.0 36 88
+ 1.30848 1 0 tcp 1040 ------- 0 1.0 3.0 56 97
- 1.309056 1 0 tcp 1040 ------- 0 1.0 3.0 47 79
r 1.309088 0 3 tcp 1040 ------- 0 1.0 3.0 41 67
+ 1.309088 3 0 ack 40 ------- 0 3.0 1.0 41 98
- 1.309088 3 0 ack 40 ------- 0 3.0 1.0 41 98
r 1.310736 1 0 tcp 1040 ------- 0 1.0 3.0 44 73
+ 1.310736 0 3 tcp 1040 ------- 0 1.0 3.0 44 73
- 1.310736 0 3 tcp 1040 ------- 0 1.0 3.0 44 73
r 1.3108 3 0 ack 40 ------- 0 3.0 1.0 39 94
+ 1.3108 0 1 ack 40 ------- 0 3.0 1.0 39 94
- 1.3108 0 1 ack 40 ------- 0 3.0 1.0 39 94
r 1.31264 0 1 ack 40 ------- 0 3.0 1.0 37 90
+ 1.31264 1 0 tcp 1040 ------- 0 1.0 3.0 57 99
- 1.313216 1 0 tcp 1040 ------- 0 1.0 3.0 48 81
r 1.313248 0 3 tcp 1040 ------- 0 1.0 3.0 42 69
+ 1.313248 3 0 ack 40 ------- 0 3.0 1.0 42 100
- 1.313248 3 0 ack 40 ------- 0 3.0 1.0 42 100
r 1.314896 1 0 tcp 1040 ------- 0 1.0 3.0 45 75
+ 1.314896 0 3 tcp 1040 ------- 0 1.0 3.0 45 75
- 1.314896 0 3 tcp 1040 ------- 0 1.0 3.0 45 75
r 1.31496 3 0 ack 40 ------- 0 3.0 1.0 40 96
+ 1.31496 0 1 ack 40 ------- 0 3.0 1.0 40 96
- 1.31496 0 1 ack 40 ------- 0 3.0 1.0 40 96
r 1.3168 0 1 ack 40 ------- 0 3.0 1.0 38 92
+ 1.3168 1 0 tcp 1040 ------- 0 1.0 3.0 58 101
- 1.317376 1 0 tcp 1040 ------- 0 1.0 3.0 49 83
r 1.317408 0 3 tcp 1040 ------- 0 1.0 3.0 43 71
+ 1.317408 3 0 ack 40 ------- 0 3.0 1.0 43 102
- 1.317408 3 0 ack 40 ------- 0 3.0 1.0 43 102
r 1.319056 1 0 tcp 1040 ------- 0 1.0 3.0 46 77
+ 1.319056 0 3 tcp 1040 ------- 0 1.0 3.0 46 77
- 1.319056 0 3 tcp 1040 ------- 0 1.0 3.0 46 77
r 1.31912 3 0 ack 40 ------- 0 3.0 1.0 41 98
+ 1.31912 0 1 ack 40 ------- 0 3.0 1.0 41 98
- 1.31912 0 1 ack 40 ------- 0 3.0 1.0 41 98
r 1.32096 0 1 ack 40 ------- 0 3.0 1.0 39 94
+ 1.32096 1 0 tcp 1040 ------- 0 1.0 3.0 59 103
- 1.321536 1 0 tcp 1040 ------- 0 1.0 3.0 50 85
r 1.321568 0 3 tcp 1040 ------- 0 1.0 3.0 44 73
+ 1.321568 3 0 ack 40 ------- 0 3.0 1.0 44 104
- 1.321568 3 0 ack 40 ------- 0 3.0 1.0 44 104
r 1.323216 1 0 tcp 1040 ------- 0 1.0 3.0 47 79
+ 1.323216 0 3 tcp 1040 ------- 0 1.0 3.0 47 79
- 1.323216 0 3 tcp 1040 ------- 0 1.0 3.0 47 79
r 1.32328 3 0 ack 40 ------- 0 3.0 1.0 42 100
+ 1.32328 0 1 ack 40 ------- 0 3.0 1.0 42 100
- 1.32328 0 1 ack 40 ------- 0 3.0 1.0 42 100
r 1.32512 0 1 ack 40 ------- 0 3.0 1.0 40 96
+ 1.32512 1 0 tcp 1040 ------- 0 1.0 3.0 60 105
- 1.325696 1 0 tcp 1040 ------- 0 1.0 3.0 51 87
r 1.325728 0 3 tcp 1040 ------- 0 1.0 3.0 45 75
+ 1.325728 3 0 ack 40 ------- 0 3.0 1.0 45 106
- 1.325728 3 0 ack 40 ------- 0 3.0 1.0 45 106
r 1.327376 1 0 tcp 1040 ------- 0 1.0 3.0 48 81
+ 1.327376 0 3 tcp 1040 ------- 0 1.0 3.0 48 81
- 1.327376 0 3 tcp 1040 ------- 0 1.0 3.0 48 81
r 1.32744 3 0 ack 40 ------- 0 3.0 1.0 43 102
+ 1.32744 0 1 ack 40 ------- 0 3.0 1.0 43 102
- 1.32744 0 1 ack 40 ------- 0 3.0 1.0 43 102
r 1.32928 0 1 ack 40 ------- 0 3.0 1.0 41 98
+ 1.32928 1 0 tcp 1040 ------- 0 1.0 3.0 61 107
- 1.329856 1 0 tcp 1040 ------- 0 1.0 3.0 52 89
r 1.329888 0 3 tcp 1040 ------- 0 1.0 3.0 46 77
+ 1.329888 3 0 ack 40 ------- 0 3.0 1.0 46 108
- 1.329888 3 0 ack 40 ------- 0 3.0 1.0 46 108
r 1.331536 1 0 tcp 1040 ------- 0 1.0 3.0 49 83
+ 1.331536 0 3 tcp 1040 ------- 0 1.0 3.0 49 83
- 1.331536 0 3 tcp 1040 ------- 0 1.0 3.0 49 83
r 1.3316 3 0 ack 40 ------- 0 3.0 1.0 44 104
+ 1.3316 0 1 ack 40 ------- 0 3.0 1.0 44 104
- 1.3316 0 1 ack 40 ------- 0 3.0 1.0 44 104
r 1.33344 0 1 ack 40 ------- 0 3.0 1.0 42 100
+ 1.33344 1 0 tcp 1040 ------- 0 1.0 3.0 62 109
- 1.334016 1 0 tcp 1040 ------- 0 1.0 3.0 53 91
r 1.334048 0 3 tcp 1040 ------- 0 1.0 3.0 47 79
+ 1.334048 3 0 ack 40 ------- 0 3.0 1.0 47 110
- 1.334048 3 0 ack 40 ------- 0 3.0 1.0 47 110
r 1.335696 1 0 tcp 1040 ------- 0 1.0 3.0 50 85
+ 1.335696 0 3 tcp 1040 ------- 0 1.0 3.0 50 85
- 1.335696 0 3 tcp 1040 ------- 0 1.0 3.0 50 85
r 1.33576 3 0 ack 40 ------- 0 3.0 1.0 45 106
+ 1.33576 0 1 ack 40 ------- 0 3.0 1.0 45 106
- 1.33576 0 1 ack 40 ------- 0 3.0 1.0 45 106
r 1.3376 0 1 ack 40 ------- 0 3.0 1.0 43 102
+ 1.3376 1 0 tcp 1040 ------- 0 1.0 3.0 63 111
- 1.338176 1 0 tcp 1040 ------- 0 1.0 3.0 54 93
r 1.338208 0 3 tcp 1040 ------- 0 1.0 3.0 48 81
+ 1.338208 3 0 ack 40 ------- 0 3.0 1.0 48 112
- 1.338208 3 0 ack 40 ------- 0 3.0 1.0 48 112
r 1.339856 1 0 tcp 1040 ------- 0 1.0 3.0 51 87
+ 1.339856 0 3 tcp 1040 ------- 0 1.0 3.0 51 87
- 1.339856 0 3 tcp 1040 ------- 0 1.0 3.0 51 87
r 1.33992 3 0 ack 40 ------- 0 3.0 1.0 46 108
+ 1.33992 0 1 ack 40 ------- 0 3.0 1.0 46 108
- 1.33992 0 1 ack 40 ------- 0 3.0 1.0 46 108
r 1.34176 0 1 ack 40 ------- 0 3.0 1.0 44 104
+ 1.34176 1 0 tcp 1040 ------- 0 1.0 3.0 64 113
- 1.342336 1 0 tcp 1040 ------- 0 1.0 3.0 55 95
r 1.342368 0 3 tcp 1040 ------- 0 1.0 3.0 49 83
+ 1.342368 3 0 ack 40 ------- 0 3.0 1.0 49 114
- 1.342368 3 0 ack 40 ------- 0 3.0 1.0 49 114
r 1.344016 1 0 tcp 1040 ------- 0 1.0 3.0 52 89
+ 1.344016 0 3 tcp 1040 ------- 0 1.0 3.0 52 89
- 1.344016 0 3 tcp 1040 ------- 0 1.0 3.0 52 89
r 1.34408 3 0 ack 40 ------- 0 3.0 1.0 47 110
+ 1.34408 0 1 ack 40 ------- 0 3.0 1.0 47 110
- 1.34408 0 1 ack 40 ------- 0 3.0 1.0 47 110
r 1.34592 0 1 ack 40 ------- 0 3.0 1.0 45 106
+ 1.34592 1 0 tcp 1040 ------- 0 1.0 3.0 65 115
- 1.346496 1 0 tcp 1040 ------- 0 1.0 3.0 56 97
r 1.346528 0 3 tcp 1040 ------- 0 1.0 3.0 50 85
+ 1.346528 3 0 ack 40 ------- 0 3.0 1.0 50 116
- 1.346528 3 0 ack 40 ------- 0 3.0 1.0 50 116
r 1.348176 1 0 tcp 1040 ------- 0 1.0 3.0 53 91
+ 1.348176 0 3 tcp 1040 ------- 0 1.0 3.0 53 91
- 1.348176 0 3 tcp 1040 ------- 0 1.0 3.0 53 91
r 1.34824 3 0 ack 40 ------- 0 3.0 1.0 48 112
+ 1.34824 0 1 ack 40 ------- 0 3.0 1.0 48 112
- 1.34824 0 1 ack 40 ------- 0 3.0 1.0 48 112
r 1.35008 0 1 ack 40 ------- 0 3.0 1.0 46 108
+ 1.35008 1 0 tcp 1040 ------- 0 1.0 3.0 66 117
- 1.350656 1 0 tcp 1040 ------- 0 1.0 3.0 57 99
r 1.350688 0 3 tcp 1040 ------- 0 1.0 3.0 51 87
+ 1.350688 3 0 ack 40 ------- 0 3.0 1.0 51 118
- 1.350688 3 0 ack 40 ------- 0 3.0 1.0 51 118
r 1.352336 1 0 tcp 1040 ------- 0 1.0 3.0 54 93
+ 1.352336 0 3 tcp 1040 ------- 0 1.0 3.0 54 93
- 1.352336 0 3 tcp 1040 ------- 0 1.0 3.0 54 93
r 1.3524 3 0 ack 40 ------- 0 3.0 1.0 49 114
+ 1.3524 0 1 ack 40 ------- 0 3.0 1.0 49 114
- 1.3524 0 1 ack 40 ------- 0 3.0 1.0 49 114
r 1.35424 0 1 ack 40 ------- 0 3.0 1.0 47 110
+ 1.35424 1 0 tcp 1040 ------- 0 1.0 3.0 67 119